<?xml version="1.0"?>
<VTKFile type="UnstructuredGrid"  version="0.1"  >
<UnstructuredGrid>
<Piece  NumberOfPoints="882" NumberOfCells="3600">
<Points>
<DataArray  type="Float64"  NumberOfComponents="3"  format="ascii">0 0 0  0.5 0 0  1 0 0  1.5 0 0  2 0 0  2.5 0 0  3 0 0  3.5 0 0  4 0 0  4.5 0 0  5 0 0  5.5 0 0  6 0 0  6.5 0 0  7 0 0  7.5 0 0  8 0 0  8.5 0 0  9 0 0  9.5 0 0  10 0 0  0 0.5 0  0.5 0.5 0  1 0.5 0  1.5 0.5 0  2 0.5 0  2.5 0.5 0  3 0.5 0  3.5 0.5 0  4 0.5 0  4.5 0.5 0  5 0.5 0  5.5 0.5 0  6 0.5 0  6.5 0.5 0  7 0.5 0  7.5 0.5 0  8 0.5 0  8.5 0.5 0  9 0.5 0  9.5 0.5 0  10 0.5 0  0 1 0  0.5 1 0  1 1 0  1.5 1 0  2 1 0  2.5 1 0  3 1 0  3.5 1 0  4 1 0  4.5 1 0  5 1 0  5.5 1 0  6 1 0  6.5 1 0  7 1 0  7.5 1 0  8 1 0  8.5 1 0  9 1 0  9.5 1 0  10 1 0  0 1.5 0  0.5 1.5 0  1 1.5 0  1.5 1.5 0  2 1.5 0  2.5 1.5 0  3 1.5 0  3.5 1.5 0  4 1.5 0  4.5 1.5 0  5 1.5 0  5.5 1.5 0  6 1.5 0  6.5 1.5 0  7 1.5 0  7.5 1.5 0  8 1.5 0  8.5 1.5 0  9 1.5 0  9.5 1.5 0  10 1.5 0  0 2 0  0.5 2 0  1 2 0  1.5 2 0  2 2 0  2.5 2 0  3 2 0  3.5 2 0  4 2 0  4.5 2 0  5 2 0  5.5 2 0  6 2 0  6.5 2 0  7 2 0  7.5 2 0  8 2 0  8.5 2 0  9 2 0  9.5 2 0  10 2 0  0 2.5 0  0.5 2.5 0  1 2.5 0  1.5 2.5 0  2 2.5 0  2.5 2.5 0  3 2.5 0  3.5 2.5 0  4 2.5 0  4.5 2.5 0  5 2.5 0  5.5 2.5 0  6 2.5 0  6.5 2.5 0  7 2.5 0  7.5 2.5 0  8 2.5 0  8.5 2.5 0  9 2.5 0  9.5 2.5 0  10 2.5 0  0 3 0  0.5 3 0  1 3 0  1.5 3 0  2 3 0  2.5 3 0  3 3 0  3.5 3 0  4 3 0  4.5 3 0  5 3 0  5.5 3 0  6 3 0  6.5 3 0  7 3 0  7.5 3 0  8 3 0  8.5 3 0  9 3 0  9.5 3 0  10 3 0  0 0 0.1  0.5 0 0.1  1 0 0.1  1.5 0 0.1  2 0 0.1  2.5 0 0.1  3 0 0.1  3.5 0 0.1  4 0 0.1  4.5 0 0.1  5 0 0.1  5.5 0 0.1  6 0 0.1  6.5 0 0.1  7 0 0.1  7.5 0 0.1  8 0 0.1  8.5 0 0.1  9 0 0.1  9.5 0 0.1  10 0 0.1  0 0.5 0.1  0.5 0.5 0.1  1 0.5 0.1  1.5 0.5 0.1  2 0.5 0.1  2.5 0.5 0.1  3 0.5 0.1  3.5 0.5 0.1  4 0.5 0.1  4.5 0.5 0.1  5 0.5 0.1  5.5 0.5 0.1  6 0.5 0.1  6.5 0.5 0.1  7 0.5 0.1  7.5 0.5 0.1  8 0.5 0.1  8.5 0.5 0.1  9 0.5 0.1  9.5 0.5 0.1  10 0.5 0.1  0 1 0.1  0.5 1 0.1  1 1 0.1  1.5 1 0.1  2 1 0.1  2.5 1 0.1  3 1 0.1  3.5 1 0.1  4 1 0.1  4.5 1 0.1  5 1 0.1  5.5 1 0.1  6 1 0.1  6.5 1 0.1  7 1 0.1  7.5 1 0.1  8 1 0.1  8.5 1 0.1  9 1 0.1  9.5 1 0.1  10 1 0.1  0 1.5 0.1  0.5 1.5 0.1  1 1.5 0.1  1.5 1.5 0.1  2 1.5 0.1  2.5 1.5 0.1  3 1.5 0.1  3.5 1.5 0.1  4 1.5 0.1  4.5 1.5 0.1  5 1.5 0.1  5.5 1.5 0.1  6 1.5 0.1  6.5 1.5 0.1  7 1.5 0.1  7.5 1.5 0.1  8 1.5 0.1  8.5 1.5 0.1  9 1.5 0.1  9.5 1.5 0.1  10 1.5 0.1  0 2 0.1  0.5 2 0.1  1 2 0.1  1.5 2 0.1  2 2 0.1  2.5 2 0.1  3 2 0.1  3.5 2 0.1  4 2 0.1  4.5 2 0.1  5 2 0.1  5.5 2 0.1  6 2 0.1  6.5 2 0.1  7 2 0.1  7.5 2 0.1  8 2 0.1  8.5 2 0.1  9 2 0.1  9.5 2 0.1  10 2 0.1  0 2.5 0.1  0.5 2.5 0.1  1 2.5 0.1  1.5 2.5 0.1  2 2.5 0.1  2.5 2.5 0.1  3 2.5 0.1  3.5 2.5 0.1  4 2.5 0.1  4.5 2.5 0.1  5 2.5 0.1  5.5 2.5 0.1  6 2.5 0.1  6.5 2.5 0.1  7 2.5 0.1  7.5 2.5 0.1  8 2.5 0.1  8.5 2.5 0.1  9 2.5 0.1  9.5 2.5 0.1  10 2.5 0.1  0 3 0.1  0.5 3 0.1  1 3 0.1  1.5 3 0.1  2 3 0.1  2.5 3 0.1  3 3 0.1  3.5 3 0.1  4 3 0.1  4.5 3 0.1  5 3 0.1  5.5 3 0.1  6 3 0.1  6.5 3 0.1  7 3 0.1  7.5 3 0.1  8 3 0.1  8.5 3 0.1  9 3 0.1  9.5 3 0.1  10 3 0.1  0 0 0.2  0.5 0 0.2  1 0 0.2  1.5 0 0.2  2 0 0.2  2.5 0 0.2  3 0 0.2  3.5 0 0.2  4 0 0.2  4.5 0 0.2  5 0 0.2  5.5 0 0.2  6 0 0.2  6.5 0 0.2  7 0 0.2  7.5 0 0.2  8 0 0.2  8.5 0 0.2  9 0 0.2  9.5 0 0.2  10 0 0.2  0 0.5 0.2  0.5 0.5 0.2  1 0.5 0.2  1.5 0.5 0.2  2 0.5 0.2  2.5 0.5 0.2  3 0.5 0.2  3.5 0.5 0.2  4 0.5 0.2  4.5 0.5 0.2  5 0.5 0.2  5.5 0.5 0.2  6 0.5 0.2  6.5 0.5 0.2  7 0.5 0.2  7.5 0.5 0.2  8 0.5 0.2  8.5 0.5 0.2  9 0.5 0.2  9.5 0.5 0.2  10 0.5 0.2  0 1 0.2  0.5 1 0.2  1 1 0.2  1.5 1 0.2  2 1 0.2  2.5 1 0.2  3 1 0.2  3.5 1 0.2  4 1 0.2  4.5 1 0.2  5 1 0.2  5.5 1 0.2  6 1 0.2  6.5 1 0.2  7 1 0.2  7.5 1 0.2  8 1 0.2  8.5 1 0.2  9 1 0.2  9.5 1 0.2  10 1 0.2  0 1.5 0.2  0.5 1.5 0.2  1 1.5 0.2  1.5 1.5 0.2  2 1.5 0.2  2.5 1.5 0.2  3 1.5 0.2  3.5 1.5 0.2  4 1.5 0.2  4.5 1.5 0.2  5 1.5 0.2  5.5 1.5 0.2  6 1.5 0.2  6.5 1.5 0.2  7 1.5 0.2  7.5 1.5 0.2  8 1.5 0.2  8.5 1.5 0.2  9 1.5 0.2  9.5 1.5 0.2  10 1.5 0.2  0 2 0.2  0.5 2 0.2  1 2 0.2  1.5 2 0.2  2 2 0.2  2.5 2 0.2  3 2 0.2  3.5 2 0.2  4 2 0.2  4.5 2 0.2  5 2 0.2  5.5 2 0.2  6 2 0.2  6.5 2 0.2  7 2 0.2  7.5 2 0.2  8 2 0.2  8.5 2 0.2  9 2 0.2  9.5 2 0.2  10 2 0.2  0 2.5 0.2  0.5 2.5 0.2  1 2.5 0.2  1.5 2.5 0.2  2 2.5 0.2  2.5 2.5 0.2  3 2.5 0.2  3.5 2.5 0.2  4 2.5 0.2  4.5 2.5 0.2  5 2.5 0.2  5.5 2.5 0.2  6 2.5 0.2  6.5 2.5 0.2  7 2.5 0.2  7.5 2.5 0.2  8 2.5 0.2  8.5 2.5 0.2  9 2.5 0.2  9.5 2.5 0.2  10 2.5 0.2  0 3 0.2  0.5 3 0.2  1 3 0.2  1.5 3 0.2  2 3 0.2  2.5 3 0.2  3 3 0.2  3.5 3 0.2  4 3 0.2  4.5 3 0.2  5 3 0.2  5.5 3 0.2  6 3 0.2  6.5 3 0.2  7 3 0.2  7.5 3 0.2  8 3 0.2  8.5 3 0.2  9 3 0.2  9.5 3 0.2  10 3 0.2  0 0 0.3  0.5 0 0.3  1 0 0.3  1.5 0 0.3  2 0 0.3  2.5 0 0.3  3 0 0.3  3.5 0 0.3  4 0 0.3  4.5 0 0.3  5 0 0.3  5.5 0 0.3  6 0 0.3  6.5 0 0.3  7 0 0.3  7.5 0 0.3  8 0 0.3  8.5 0 0.3  9 0 0.3  9.5 0 0.3  10 0 0.3  0 0.5 0.3  0.5 0.5 0.3  1 0.5 0.3  1.5 0.5 0.3  2 0.5 0.3  2.5 0.5 0.3  3 0.5 0.3  3.5 0.5 0.3  4 0.5 0.3  4.5 0.5 0.3  5 0.5 0.3  5.5 0.5 0.3  6 0.5 0.3  6.5 0.5 0.3  7 0.5 0.3  7.5 0.5 0.3  8 0.5 0.3  8.5 0.5 0.3  9 0.5 0.3  9.5 0.5 0.3  10 0.5 0.3  0 1 0.3  0.5 1 0.3  1 1 0.3  1.5 1 0.3  2 1 0.3  2.5 1 0.3  3 1 0.3  3.5 1 0.3  4 1 0.3  4.5 1 0.3  5 1 0.3  5.5 1 0.3  6 1 0.3  6.5 1 0.3  7 1 0.3  7.5 1 0.3  8 1 0.3  8.5 1 0.3  9 1 0.3  9.5 1 0.3  10 1 0.3  0 1.5 0.3  0.5 1.5 0.3  1 1.5 0.3  1.5 1.5 0.3  2 1.5 0.3  2.5 1.5 0.3  3 1.5 0.3  3.5 1.5 0.3  4 1.5 0.3  4.5 1.5 0.3  5 1.5 0.3  5.5 1.5 0.3  6 1.5 0.3  6.5 1.5 0.3  7 1.5 0.3  7.5 1.5 0.3  8 1.5 0.3  8.5 1.5 0.3  9 1.5 0.3  9.5 1.5 0.3  10 1.5 0.3  0 2 0.3  0.5 2 0.3  1 2 0.3  1.5 2 0.3  2 2 0.3  2.5 2 0.3  3 2 0.3  3.5 2 0.3  4 2 0.3  4.5 2 0.3  5 2 0.3  5.5 2 0.3  6 2 0.3  6.5 2 0.3  7 2 0.3  7.5 2 0.3  8 2 0.3  8.5 2 0.3  9 2 0.3  9.5 2 0.3  10 2 0.3  0 2.5 0.3  0.5 2.5 0.3  1 2.5 0.3  1.5 2.5 0.3  2 2.5 0.3  2.5 2.5 0.3  3 2.5 0.3  3.5 2.5 0.3  4 2.5 0.3  4.5 2.5 0.3  5 2.5 0.3  5.5 2.5 0.3  6 2.5 0.3  6.5 2.5 0.3  7 2.5 0.3  7.5 2.5 0.3  8 2.5 0.3  8.5 2.5 0.3  9 2.5 0.3  9.5 2.5 0.3  10 2.5 0.3  0 3 0.3  0.5 3 0.3  1 3 0.3  1.5 3 0.3  2 3 0.3  2.5 3 0.3  3 3 0.3  3.5 3 0.3  4 3 0.3  4.5 3 0.3  5 3 0.3  5.5 3 0.3  6 3 0.3  6.5 3 0.3  7 3 0.3  7.5 3 0.3  8 3 0.3  8.5 3 0.3  9 3 0.3  9.5 3 0.3  10 3 0.3  0 0 0.4  0.5 0 0.4  1 0 0.4  1.5 0 0.4  2 0 0.4  2.5 0 0.4  3 0 0.4  3.5 0 0.4  4 0 0.4  4.5 0 0.4  5 0 0.4  5.5 0 0.4  6 0 0.4  6.5 0 0.4  7 0 0.4  7.5 0 0.4  8 0 0.4  8.5 0 0.4  9 0 0.4  9.5 0 0.4  10 0 0.4  0 0.5 0.4  0.5 0.5 0.4  1 0.5 0.4  1.5 0.5 0.4  2 0.5 0.4  2.5 0.5 0.4  3 0.5 0.4  3.5 0.5 0.4  4 0.5 0.4  4.5 0.5 0.4  5 0.5 0.4  5.5 0.5 0.4  6 0.5 0.4  6.5 0.5 0.4  7 0.5 0.4  7.5 0.5 0.4  8 0.5 0.4  8.5 0.5 0.4  9 0.5 0.4  9.5 0.5 0.4  10 0.5 0.4  0 1 0.4  0.5 1 0.4  1 1 0.4  1.5 1 0.4  2 1 0.4  2.5 1 0.4  3 1 0.4  3.5 1 0.4  4 1 0.4  4.5 1 0.4  5 1 0.4  5.5 1 0.4  6 1 0.4  6.5 1 0.4  7 1 0.4  7.5 1 0.4  8 1 0.4  8.5 1 0.4  9 1 0.4  9.5 1 0.4  10 1 0.4  0 1.5 0.4  0.5 1.5 0.4  1 1.5 0.4  1.5 1.5 0.4  2 1.5 0.4  2.5 1.5 0.4  3 1.5 0.4  3.5 1.5 0.4  4 1.5 0.4  4.5 1.5 0.4  5 1.5 0.4  5.5 1.5 0.4  6 1.5 0.4  6.5 1.5 0.4  7 1.5 0.4  7.5 1.5 0.4  8 1.5 0.4  8.5 1.5 0.4  9 1.5 0.4  9.5 1.5 0.4  10 1.5 0.4  0 2 0.4  0.5 2 0.4  1 2 0.4  1.5 2 0.4  2 2 0.4  2.5 2 0.4  3 2 0.4  3.5 2 0.4  4 2 0.4  4.5 2 0.4  5 2 0.4  5.5 2 0.4  6 2 0.4  6.5 2 0.4  7 2 0.4  7.5 2 0.4  8 2 0.4  8.5 2 0.4  9 2 0.4  9.5 2 0.4  10 2 0.4  0 2.5 0.4  0.5 2.5 0.4  1 2.5 0.4  1.5 2.5 0.4  2 2.5 0.4  2.5 2.5 0.4  3 2.5 0.4  3.5 2.5 0.4  4 2.5 0.4  4.5 2.5 0.4  5 2.5 0.4  5.5 2.5 0.4  6 2.5 0.4  6.5 2.5 0.4  7 2.5 0.4  7.5 2.5 0.4  8 2.5 0.4  8.5 2.5 0.4  9 2.5 0.4  9.5 2.5 0.4  10 2.5 0.4  0 3 0.4  0.5 3 0.4  1 3 0.4  1.5 3 0.4  2 3 0.4  2.5 3 0.4  3 3 0.4  3.5 3 0.4  4 3 0.4  4.5 3 0.4  5 3 0.4  5.5 3 0.4  6 3 0.4  6.5 3 0.4  7 3 0.4  7.5 3 0.4  8 3 0.4  8.5 3 0.4  9 3 0.4  9.5 3 0.4  10 3 0.4  0 0 0.5  0.5 0 0.5  1 0 0.5  1.5 0 0.5  2 0 0.5  2.5 0 0.5  3 0 0.5  3.5 0 0.5  4 0 0.5  4.5 0 0.5  5 0 0.5  5.5 0 0.5  6 0 0.5  6.5 0 0.5  7 0 0.5  7.5 0 0.5  8 0 0.5  8.5 0 0.5  9 0 0.5  9.5 0 0.5  10 0 0.5  0 0.5 0.5  0.5 0.5 0.5  1 0.5 0.5  1.5 0.5 0.5  2 0.5 0.5  2.5 0.5 0.5  3 0.5 0.5  3.5 0.5 0.5  4 0.5 0.5  4.5 0.5 0.5  5 0.5 0.5  5.5 0.5 0.5  6 0.5 0.5  6.5 0.5 0.5  7 0.5 0.5  7.5 0.5 0.5  8 0.5 0.5  8.5 0.5 0.5  9 0.5 0.5  9.5 0.5 0.5  10 0.5 0.5  0 1 0.5  0.5 1 0.5  1 1 0.5  1.5 1 0.5  2 1 0.5  2.5 1 0.5  3 1 0.5  3.5 1 0.5  4 1 0.5  4.5 1 0.5  5 1 0.5  5.5 1 0.5  6 1 0.5  6.5 1 0.5  7 1 0.5  7.5 1 0.5  8 1 0.5  8.5 1 0.5  9 1 0.5  9.5 1 0.5  10 1 0.5  0 1.5 0.5  0.5 1.5 0.5  1 1.5 0.5  1.5 1.5 0.5  2 1.5 0.5  2.5 1.5 0.5  3 1.5 0.5  3.5 1.5 0.5  4 1.5 0.5  4.5 1.5 0.5  5 1.5 0.5  5.5 1.5 0.5  6 1.5 0.5  6.5 1.5 0.5  7 1.5 0.5  7.5 1.5 0.5  8 1.5 0.5  8.5 1.5 0.5  9 1.5 0.5  9.5 1.5 0.5  10 1.5 0.5  0 2 0.5  0.5 2 0.5  1 2 0.5  1.5 2 0.5  2 2 0.5  2.5 2 0.5  3 2 0.5  3.5 2 0.5  4 2 0.5  4.5 2 0.5  5 2 0.5  5.5 2 0.5  6 2 0.5  6.5 2 0.5  7 2 0.5  7.5 2 0.5  8 2 0.5  8.5 2 0.5  9 2 0.5  9.5 2 0.5  10 2 0.5  0 2.5 0.5  0.5 2.5 0.5  1 2.5 0.5  1.5 2.5 0.5  2 2.5 0.5  2.5 2.5 0.5  3 2.5 0.5  3.5 2.5 0.5  4 2.5 0.5  4.5 2.5 0.5  5 2.5 0.5  5.5 2.5 0.5  6 2.5 0.5  6.5 2.5 0.5  7 2.5 0.5  7.5 2.5 0.5  8 2.5 0.5  8.5 2.5 0.5  9 2.5 0.5  9.5 2.5 0.5  10 2.5 0.5  0 3 0.5  0.5 3 0.5  1 3 0.5  1.5 3 0.5  2 3 0.5  2.5 3 0.5  3 3 0.5  3.5 3 0.5  4 3 0.5  4.5 3 0.5  5 3 0.5  5.5 3 0.5  6 3 0.5  6.5 3 0.5  7 3 0.5  7.5 3 0.5  8 3 0.5  8.5 3 0.5  9 3 0.5  9.5 3 0.5  10 3 0.5  </DataArray>
</Points>
<Cells>
[...]
<PointData  Vectors="f_7-0"> 
<DataArray  type="Float64"  Name="f_7-0"  NumberOfComponents="3" format="ascii">0.0000000000000000e+00 0.0000000000000000e+00 0.0000000000000000e+00  1.8029426146718897e-01 1.5026320178947677e-01 2.9338165087474305e-02  3.4493942003128780e-01 2.8160573495826113e-01 2.7780631011569638e-02  5.2382721143812661e-01 3.8081384604804874e-01 3.0885202853526007e-02  7.6735232805166731e-01 4.2387483433570788e-01 3.2910942607053358e-02  1.0537763021687483e+00 4.2395881604487035e-01 3.2615653922554944e-02  1.3488656158247552e+00 4.1688389922584268e-01 3.1814175502267027e-02  1.6400122746068857e+00 4.1552863583951011e-01 3.1701062691984354e-02  1.9286471067173854e+00 4.1676803451696476e-01 3.1800967146459504e-02  2.2172804395564891e+00 4.1770043795471740e-01 3.1841098122575878e-02  2.5063939145299532e+00 4.1799221282187893e-01 3.1838764643886894e-02  2.7957348098130632e+00 4.1802456502249141e-01 3.1832426104526655e-02  3.0851064801383115e+00 4.1803001213075602e-01 3.1831409648942065e-02  3.3744631354053776e+00 4.1805161037116401e-01 3.1832373688387691e-02  3.6638154968413819e+00 4.1807373296910622e-01 3.1832932134900647e-02  3.9531730548064958e+00 4.1808688373744207e-01 3.1832899345651512e-02  4.2425358475996688e+00 4.1809279110268904e-01 3.1832687201163966e-02  4.5319011252000685e+00 4.1809539512275662e-01 3.1832533092783860e-02  4.8212672002058934e+00 4.1809679732775124e-01 3.1832462495166226e-02  5.1106335403520848e+00 4.1809758823565302e-01 3.1832438055241989e-02  5.4000000000000012e+00 4.1809784787848375e-01 3.1832434368870295e-02  0.0000000000000000e+00 0.0000000000000000e+00 0.0000000000000000e+00  9.0285305574782065e-02 5.5553477354323401e-02 3.1875797751752789e-02  2.6941215097966903e-01 2.0308296650280722e-01 3.1966587383305566e-02  4.9007057632660100e-01 2.8292105226690262e-01 3.3157934845018805e-02  7.6442108697493794e-01 3.0246317474326634e-01 3.2225692104230562e-02  1.0580818069498750e+00 2.9521933402530653e-01 3.1256925843601770e-02  1.3503067136496725e+00 2.9032658182923904e-01 3.1696495667396275e-02  1.6394464271101743e+00 2.9080713956209908e-01 3.1873066983591693e-02  1.9280640420298958e+00 2.9218795049254204e-01 3.1819541879923724e-02  2.2170708339993745e+00 2.9283334463676242e-01 3.1783443302478315e-02  2.5063662394396986e+00 2.9296509347539135e-01 3.1773213663483506e-02  2.7957353799737477e+00 2.9296886291731739e-01 3.1774319445284263e-02  3.0850973175825813e+00 2.9298317934550655e-01 3.1776436735339614e-02  3.3744511313212167e+00 2.9300899528039243e-01 3.1777031648173262e-02  3.6638076718061026e+00 2.9302858638074303e-01 3.1776839576660193e-02  3.9531694492140237e+00 2.9303847083870627e-01 3.1776598616089398e-02  4.2425343208888604e+00 2.9304269675198102e-01 3.1776493193219998e-02  4.5319003329775231e+00 2.9304474527014268e-01 3.1776460444832337e-02  4.8212667211672882e+00 2.9304596731162957e-01 3.1776442996000714e-02  5.1106333055002802e+00 2.9304666209713787e-01 3.1776429485621246e-02  5.4000000000000012e+00 2.9304688908096899e-01 3.1776423677718144e-02  0.0000000000000000e+00 0.0000000000000000e+00 0.0000000000000000e+00  3.5667217493011556e-02 9.6931995349203211e-03 2.4767449725598589e-02  2.0731455190011377e-01 1.1383398174655991e-01 3.4151719743184643e-02  4.6948387958439014e-01 1.6759884043558776e-01 3.2944431465668833e-02  7.6558449962723674e-01 1.7275469395011792e-01 2.9836069185985959e-02  1.0615396661569654e+00 1.6702494341964430e-01 3.0719962439905203e-02  1.3508173783554056e+00 1.6545314193274097e-01 3.1872187764077388e-02  1.6388089538368240e+00 1.6640078937003450e-01 3.1910072210064373e-02  1.9276059141580801e+00 1.6740471673609242e-01 3.1779969085676450e-02  2.2169313197781571e+00 1.6781478264103947e-01 3.1719769976049590e-02  2.5063507935957103e+00 1.6789856518247873e-01 3.1712631233431127e-02  2.7957313905664827e+00 1.6791587335816263e-01 3.1718726240726886e-02  3.0850856844437846e+00 1.6794010173490295e-01 3.1721541301866718e-02  3.3744399109740684e+00 1.6796490586207777e-01 3.1721330028135736e-02  3.6638011682230402e+00 1.6798074057973805e-01 3.1720624427051827e-02  3.9531665406988692e+00 1.6798844616694081e-01 3.1720348989881665e-02  4.2425330118461098e+00 1.6799199037417104e-01 3.1720360643360840e-02  4.5318996031990091e+00 1.6799387534666890e-01 3.1720409439388149e-02  4.8212662807571025e+00 1.6799499870868612e-01 3.1720422415513524e-02  5.1106330946524645e+00 1.6799560824856757e-01 3.1720415985766547e-02  5.4000000000000012e+00 1.6799580096459024e-01 3.1720411495126860e-02  0.0000000000000000e+00 0.0000000000000000e+00 0.0000000000000000e+00  2.5741320991107507e-02 9.6365427469616328e-03 1.8534968881236367e-02  1.6766733384732690e-01 1.0524955026004286e-02 3.9492198972144614e-02  4.6083338730371615e-01 3.6514140871127178e-02 2.8173370955673814e-02  7.6742033661393461e-01 3.8667810286910409e-02 2.9035796605272637e-02  1.0622603701412920e+00 4.0200454585137893e-02 3.1264050288759254e-02  1.3505866451019595e+00 4.1460938968392910e-02 3.1874737975715273e-02  1.6383971633416963e+00 4.2091288455045700e-02 3.1838896386123708e-02  1.9273475898136412e+00 4.2466269023132656e-02 3.1716540592296477e-02  2.2168352572273777e+00 4.2691283458199877e-02 3.1658154051899243e-02  2.5063223267882262e+00 4.2804633587367934e-02 3.1656124070998638e-02  2.7957159292105507e+00 4.2863208113479850e-02 3.1663290898395348e-02  3.0850724374876934e+00 4.2897790338412366e-02 3.1665697391513509e-02  3.3744306143516329e+00 4.2918602932134682e-02 3.1665111450291959e-02  3.6637960130886142e+00 4.2930512011718241e-02 3.1664372023758554e-02  3.9531639784516592e+00 4.2937106769090835e-02 3.1664204118948922e-02  4.2425316913288915e+00 4.2940749565903033e-02 3.1664293878120184e-02  4.5318988602467858e+00 4.2942774416035140e-02 3.1664375957652230e-02  4.8212658655249587e+00 4.2943881845959889e-02 3.1664401852246102e-02  5.1106329078857309e+00 4.2944431339221656e-02 3.1664401335248414e-02  5.4000000000000012e+00 4.2944597782491253e-02 3.1664399249185939e-02  0.0000000000000000e+00 0.0000000000000000e+00 0.0000000000000000e+00  4.0026521246422420e-02 1.0619369053794083e-03 2.6867941720738479e-02  1.8402298637347700e-01 -7.2751329767969039e-02 3.7856343017338437e-02  4.5892985482263859e-01 -1.0591553805562326e-01 2.7194349801389170e-02  7.6537710797560154e-01 -9.4815398137389373e-02 3.0293649954874782e-02  1.0603069738472808e+00 -8.6275878608573178e-02 3.1443329359472624e-02  1.3498350305551161e+00 -8.2736363839170629e-02 3.1735589692393679e-02  1.6382990238028787e+00 -8.2324150626637754e-02 3.1730736802343798e-02  1.9273038282471133e+00 -8.2518755061305488e-02 3.1643485604102038e-02  2.2167637353459324e+00 -8.2465659051640702e-02 3.1600432578993899e-02  2.5062666169243402e+00 -8.2306555519958607e-02 3.1599986652452977e-02  2.7956852327152584e+00 -8.2196813359288079e-02 3.1606301394917088e-02  3.0850578819433188e+00 -8.2148644233259085e-02 3.1608718661495561e-02  3.3744234901419099e+00 -8.2130458648834670e-02 3.1608551912973695e-02  3.6637919342954111e+00 -8.2121388401243625e-02 3.1608183808933300e-02  3.9531614500668892e+00 -8.2115152457439208e-02 3.1608161746149284e-02  4.2425301927141206e+00 -8.2110990342762633e-02 3.1608273570622396e-02  4.5318980416964871e+00 -8.2108609164974006e-02 3.1608354860518835e-02  4.8212654535145223e+00 -8.2107407587466805e-02 3.1608383966316336e-02  5.1106327370469957e+00 -8.2106864489856948e-02 3.1608388568944455e-02  5.4000000000000012e+00 -8.2106708664834299e-02 3.1608388309433764e-02  0.0000000000000000e+00 0.0000000000000000e+00 0.0000000000000000e+00  7.7553947923813676e-02 -3.3820418448536241e-02 3.4162223133610593e-02  2.5139871235946593e-01 -1.5681455934559158e-01 2.9537613140226952e-02  4.6661513299002205e-01 -2.3349500140918528e-01 3.2270098852078148e-02  7.5902740368785693e-01 -2.2780293680995864e-01 3.0621010830714515e-02  1.0563234127137870e+00 -2.1375792427809387e-01 3.1473684889599271e-02  1.3486225181517646e+00 -2.0792450235284243e-01 3.1549019079098448e-02  1.6383568504276638e+00 -2.0703474650636616e-01 3.1588634462455599e-02  1.9274290858291485e+00 -2.0745509086139638e-01 3.1563834754503382e-02  2.2167222258556691e+00 -2.0758388901404790e-01 3.1544331749208093e-02  2.5061867721255529e+00 -2.0742562342472320e-01 3.1542651730487717e-02  2.7956385690549688e+00 -2.0727333046709184e-01 3.1547792839771729e-02  3.0850405119096713e+00 -2.0720449059412929e-01 3.1550945955580841e-02  3.3744174765921677e+00 -2.0718276503286806e-01 3.1551892248965895e-02  3.6637884756517800e+00 -2.0717425546266818e-01 3.1552106910128858e-02  3.9531588078367141e+00 -2.0716799015915657e-01 3.1552202610373656e-02  4.2425284469261628e+00 -2.0716323094257361e-01 3.1552287863709054e-02  4.5318970945480057e+00 -2.0716034443014053e-01 3.1552344784682773e-02  4.8212650086883144e+00 -2.0715890155750383e-01 3.1552369819950868e-02  5.1106325651651519e+00 -2.0715828025140193e-01 3.1552377162714425e-02  5.4000000000000012e+00 -2.0715811167898515e-01 3.1552378234033673e-02  0.0000000000000000e+00 0.0000000000000000e+00 0.0000000000000000e+00  1.6034808181353505e-01 -1.1675017413527976e-01 3.0591015156882000e-02  3.2743639027128668e-01 -2.4158675690363110e-01 2.5386925218729862e-02  4.9816615845461698e-01 -3.3008242319156939e-01 3.2608038390515987e-02  7.5173357622420567e-01 -3.5864635077222978e-01 3.2505119647164162e-02  1.0509410852442307e+00 -3.4311873068103199e-01 3.0926594683217384e-02  1.3467939358221359e+00 -3.3458786294323095e-01 3.1331459256036212e-02  1.6382703763128290e+00 -3.3221002486874557e-01 3.1445565413614228e-02  1.9276303085826747e+00 -3.3233124103841616e-01 3.1484328357311228e-02  2.2167290851157087e+00 -3.3261264006997948e-01 3.1482478228709775e-02  2.5061011662859176e+00 -3.3253899397962011e-01 3.1482638090147418e-02  2.7955780160709618e+00 -3.3237185336217073e-01 3.1488671450571763e-02  3.0850170594162805e+00 -3.3227431628109244e-01 3.1493339346623461e-02  3.3744103730830224e+00 -3.3223932292361513e-01 3.1495509106732121e-02  3.6637850436309480e+00 -3.3222784430091579e-01 3.1496169518622372e-02  3.9531560398280701e+00 -3.3222120604309158e-01 3.1496295722301004e-02  4.2425264614528659e+00 -3.3221597426036370e-01 3.1496323961839358e-02  4.5318959717688765e+00 -3.3221249097292677e-01 3.1496344948757103e-02  4.8212644828130822e+00 -3.3221063653251248e-01 3.1496359761680429e-02  5.1106323673159526e+00 -3.3220982798190185e-01 3.1496366121824146e-02  5.4000000000000012e+00 -3.3220961031957025e-01 3.1496367784055124e-02  0.0000000000000000e+00 0.0000000000000000e+00 0.0000000000000000e+00  1.8052882864923425e-01 1.5011956264793713e-01 1.8236058129994168e-02  3.4473815509637729e-01 2.8104380755959546e-01 1.6048587179865823e-02  5.2444383855402621e-01 3.8011531006994476e-01 1.7483353898246623e-02  7.6759367805802370e-01 4.2381241850228468e-01 1.9387103595267956e-02  1.0536193376931047e+00 4.2432009796346065e-01 1.9341898511776100e-02  1.3487859252672798e+00 4.1697538058037137e-01 1.8533623938494961e-02  1.6400209545343445e+00 4.1549567196881504e-01 1.8329438627239472e-02  1.9286596230434407e+00 4.1675780490173353e-01 1.8411556429581061e-02  2.2172844957434847e+00 4.1771048815614437e-01 1.8461991980865972e-02  2.5063940723673803e+00 4.1800669925052553e-01 1.8467025427324899e-02  2.7957343383670472e+00 4.1803819080568128e-01 1.8462575052688023e-02  3.0851062961947697e+00 4.1804288360106701e-01 1.8461368220558449e-02  3.3744631576770900e+00 4.1806441313300691e-01 1.8462107816406028e-02  3.6638155436746715e+00 4.1808665847797821e-01 1.8462721641801738e-02  3.9531730709252395e+00 4.1809986969087348e-01 1.8462815503000753e-02  4.2425358475548807e+00 4.1810576844553132e-01 1.8462679730308577e-02  4.5319011245661338e+00 4.1810834954682946e-01 1.8462553329802744e-02  4.8212672016762310e+00 4.1810973952863040e-01 1.8462491222236744e-02  5.1106335418891335e+00 4.1811052770329127e-01 1.8462470277925327e-02  5.4000000000000012e+00 4.1811078871720259e-01 1.8462467489199771e-02  0.0000000000000000e+00 0.0000000000000000e+00 0.0000000000000000e+00  9.1293023648690880e-02 5.8038819923545024e-02 1.9094948555416102e-02  2.6971554991085200e-01 2.0243083183082045e-01 1.8736872222331398e-02  4.9043768802834820e-01 2.8257325935554212e-01 1.9352269259801255e-02  7.6437560572830787e-01 3.0271230138200045e-01 1.8850963766667294e-02  1.0580760518062124e+00 2.9532855747183323e-01 1.8122859173786202e-02  1.3503343167391189e+00 2.9031256232816732e-01 1.8372216712239479e-02  1.6394442356236485e+00 2.9080371392981985e-01 1.8472924943034017e-02  1.9280611557560399e+00 2.9219582847209058e-01 1.8431388476901341e-02  2.2170716263894636e+00 2.9284558861800586e-01 1.8409278474170381e-02  2.5063674060208947e+00 2.9297777541155884e-01 1.8403737976242656e-02  2.7957358045409064e+00 2.9298146594552577e-01 1.8404808460489697e-02  3.0850973124327186e+00 2.9299592251301554e-01 1.8406272845430113e-02  3.3744510702736741e+00 2.9302190041183623e-01 1.8406734294709869e-02  3.6638076571878555e+00 2.9304156030745282e-01 1.8406684555173962e-02  3.9531694615532498e+00 2.9305144537744643e-01 1.8406568597477895e-02  4.2425343348215634e+00 2.9305565396704025e-01 1.8406511526260314e-02  4.5319003410499681e+00 2.9305769074943505e-01 1.8406489622488902e-02  4.8212667249567982e+00 2.9305890832752046e-01 1.8406475705682237e-02  5.1106333071485981e+00 2.9305960226099043e-01 1.8406465318469730e-02  5.4000000000000012e+00 2.9305982946658887e-01 1.8406461135047389e-02  0.0000000000000000e+00 0.0000000000000000e+00 0.0000000000000000e+00  3.4040816426249232e-02 1.0467967991830342e-02 1.4433112243251365e-02  2.0949490460089146e-01 1.1515884886460750e-01 1.9829352912349035e-02  4.6961776171465353e-01 1.6796871859059809e-01 1.9244423315251905e-02  7.6567870610255784e-01 1.7284909756347580e-01 1.7139793316412300e-02  1.0616542739741455e+00 1.6690182437647183e-01 1.7642621537682840e-02  1.3508168344638625e+00 1.6545098773400846e-01 1.8454302804651251e-02  1.6387960303360662e+00 1.6642397446252918e-01 1.8485026355498906e-02  1.9276045081359463e+00 1.6742036460888149e-01 1.8396440067460291e-02  2.2169338015732354e+00 1.6782631704523146e-01 1.8352407881266866e-02  2.5063523521509961e+00 1.6791013411307648e-01 1.8345668723951259e-02  2.7957316903947693e+00 1.6792832592998178e-01 1.8349332854447908e-02  3.0850855593908735e+00 1.6795301455075901e-01 1.8351141635935975e-02  3.3744398153764568e+00 1.6797791065405035e-01 1.8351010682447697e-02  3.6638011585023196e+00 1.6799371774666672e-01 1.8350557425470780e-02  3.9531665605549673e+00 1.6800139612315759e-01 1.8350387396578172e-02  4.2425330272133568e+00 1.6800493255422294e-01 1.8350406626379004e-02  4.5318996101244045e+00 1.6800681703934295e-01 1.8350446799260720e-02  4.8212662836705169e+00 1.6800794000965497e-01 1.8350459114769475e-02  5.1106330961454853e+00 1.6800854888729255e-01 1.8350456040505989e-02  5.4000000000000012e+00 1.6800874128192875e-01 1.8350453284032914e-02  0.0000000000000000e+00 0.0000000000000000e+00 0.0000000000000000e+00  2.4818409870372000e-02 8.9480547918823032e-03 1.0831781992498995e-02  1.6754266372367912e-01 1.0369096507833743e-02 2.2985258509431984e-02  4.6133907615137326e-01 3.7132628440169679e-02 1.6073989676164344e-02  7.6779399507586388e-01 3.8320667777305743e-02 1.6535649427984783e-02  1.0622831546113978e+00 4.0098073152143324e-02 1.8037632616317242e-02  1.3505531765730123e+00 4.1479796995089899e-02 1.8437324716227138e-02  1.6383868929491341e+00 4.2123883028255434e-02 1.8415151364041007e-02  1.9273515978508429e+00 4.2483513960120511e-02 1.8336957394055400e-02  2.2168392022822920e+00 4.2702705059052520e-02 1.8294177822198950e-02  2.5063233871038726e+00 4.2816344306911433e-02 1.8290335671013819e-02  2.7957157470684830e+00 4.2875958464793411e-02 1.8294003471924888e-02  3.0850721771143697e+00 4.2910890010955834e-02 1.8295290535004220e-02  3.3744305306137869e+00 4.2931655502038528e-02 1.8294872941205811e-02  3.6637960227526252e+00 4.2943474760596949e-02 1.8294392280996576e-02  3.9531639980490834e+00 4.2950038413195321e-02 1.8294291663500339e-02  4.2425316996762241e+00 4.2953683665785093e-02 1.8294360808014658e-02  4.5318988625946117e+00 4.2955714125401931e-02 1.8294422729435333e-02  4.8212658668707604e+00 4.2956822903565048e-02 1.8294444448858034e-02  5.1106329090055373e+00 4.2957371936720640e-02 1.8294446166613593e-02  5.4000000000000012e+00 4.2957537907035832e-02 1.8294445268634739e-02  0.0000000000000000e+00 0.0000000000000000e+00 0.0000000000000000e+00  3.8807754596050369e-02 -3.8074087047999247e-04 1.5571918381923544e-02  1.8404629881907167e-01 -7.1953021291817992e-02 2.2098690347542992e-02  4.6019902699581045e-01 -1.0665142718166262e-01 1.5234329970139010e-02  7.6561893584921692e-01 -9.4990381890816100e-02 1.7510427646376173e-02  1.0602675456057105e+00 -8.6319763932712235e-02 1.8173867699509464e-02  1.3497941289818851e+00 -8.2699111813951301e-02 1.8338342437700449e-02  1.6382917872102911e+00 -8.2294680251202790e-02 1.8326243032217658e-02  1.9273107034272490e+00 -8.2502190642580547e-02 1.8264958476410513e-02  2.2167680522858766e+00 -8.2453206159845291e-02 1.8235461622204130e-02  2.5062672059701638e+00 -8.2293885209575202e-02 1.8234144389430218e-02  2.7956847026086455e+00 -8.2183639134414246e-02 1.8237334348158465e-02  3.0850575303405914e+00 -8.2135447341215861e-02 1.8238615940947424e-02  3.3744234155094879e+00 -8.2117422196349113e-02 1.8238476111952940e-02  3.6637919522501043e+00 -8.2108450332900818e-02 1.8238263923295511e-02  3.9531614646259694e+00 -8.2102231754109897e-02 1.8238272826157829e-02  4.2425301941589701e+00 -8.2098060014482124e-02 1.8238356421616014e-02  4.5318980402923650e+00 -8.2095671284399041e-02 1.8238413682542049e-02  4.8212654535081505e+00 -8.2094467532023305e-02 1.8238434468151044e-02  5.1106327376913026e+00 -8.2093924247745337e-02 1.8238438242792136e-02  5.4000000000000012e+00 -8.2093768705642431e-02 1.8238438302114975e-02  0.0000000000000000e+00 0.0000000000000000e+00 0.0000000000000000e+00  7.7302136904495819e-02 -3.4298525785083189e-02 1.9907572342388533e-02  2.5226565160844844e-01 -1.5721777314115723e-01 1.7150115984009905e-02  4.6723444004769327e-01 -2.3396326793395222e-01 1.8771626285454517e-02  7.5933816683925148e-01 -2.2776985077713899e-01 1.7771537084383698e-02  1.0563032224866218e+00 -2.1369276159973041e-01 1.8200424714112283e-02  1.3485781008384079e+00 -2.0788562299047775e-01 1.8214696501479513e-02  1.6383520143805721e+00 -2.0701213991118833e-01 1.8210511365695646e-02  1.9274347208721880e+00 -2.0744003334706579e-01 1.8185929173643759e-02  2.2167260941436280e+00 -2.0756982231272592e-01 1.8175680014110244e-02  2.5061872800943883e+00 -2.0741167093366700e-01 1.8175779672050751e-02  2.7956379704710130e+00 -2.0725977415103905e-01 1.8179310701237739e-02  3.0850401287278526e+00 -2.0719132612453703e-01 1.8181371495702134e-02  3.3744173886114686e+00 -2.0716980851607847e-01 1.8182024270779241e-02  3.6637884827730591e+00 -2.0716135060484070e-01 1.8182224324029207e-02  3.9531588146116770e+00 -2.0715507606311631e-01 1.8182320470010057e-02  4.2425284441274034e+00 -2.0715030231635334e-01 1.8182383421433190e-02  4.5318970910324392e+00 -2.0714740844184876e-01 1.8182417108223395e-02  4.8212650075721069e+00 -2.0714596286056558e-01 1.8182429185935080e-02  5.1106325652407660e+00 -2.0714534045799560e-01 1.8182431735421407e-02  5.4000000000000012e+00 -2.0714517167709220e-01 1.8182431961051473e-02  0.0000000000000000e+00 0.0000000000000000e+00 0.0000000000000000e+00  1.5927991502003849e-01 -1.1733113434574932e-01 1.9090987854912197e-02  3.2864816763932803e-01 -2.4228166710513618e-01 1.5129215192115407e-02  4.9849532613780390e-01 -3.3002841873390770e-01 1.9320318635647600e-02  7.5182388904467645e-01 -3.5883975457407191e-01 1.9103140266173338e-02  1.0509333471367368e+00 -3.4294623874372693e-01 1.7811098601655608e-02  1.3467683995799400e+00 -3.3454969930965178e-01 1.8054325040041588e-02  1.6382667357715197e+00 -3.3219699660818641e-01 1.8087125278032405e-02  1.9276356716808027e+00 -3.3231745545727404e-01 1.8106600921881790e-02  2.2167329832985394e+00 -3.3259683194454681e