<?xml version="1.0"?>
<VTKFile type="UnstructuredGrid"  version="0.1"  >
<UnstructuredGrid>
<Piece  NumberOfPoints="882" NumberOfCells="3600">
<Points>
<DataArray  type="Float64"  NumberOfComponents="3"  format="ascii">0 0 0  0.5 0 0  1 0 0  1.5 0 0  2 0 0  2.5 0 0  3 0 0  3.5 0 0  4 0 0  4.5 0 0  5 0 0  5.5 0 0  6 0 0  6.5 0 0  7 0 0  7.5 0 0  8 0 0  8.5 0 0  9 0 0  9.5 0 0  10 0 0  0 0.5 0  0.5 0.5 0  1 0.5 0  1.5 0.5 0  2 0.5 0  2.5 0.5 0  3 0.5 0  3.5 0.5 0  4 0.5 0  4.5 0.5 0  5 0.5 0  5.5 0.5 0  6 0.5 0  6.5 0.5 0  7 0.5 0  7.5 0.5 0  8 0.5 0  8.5 0.5 0  9 0.5 0  9.5 0.5 0  10 0.5 0  0 1 0  0.5 1 0  1 1 0  1.5 1 0  2 1 0  2.5 1 0  3 1 0  3.5 1 0  4 1 0  4.5 1 0  5 1 0  5.5 1 0  6 1 0  6.5 1 0  7 1 0  7.5 1 0  8 1 0  8.5 1 0  9 1 0  9.5 1 0  10 1 0  0 1.5 0  0.5 1.5 0  1 1.5 0  1.5 1.5 0  2 1.5 0  2.5 1.5 0  3 1.5 0  3.5 1.5 0  4 1.5 0  4.5 1.5 0  5 1.5 0  5.5 1.5 0  6 1.5 0  6.5 1.5 0  7 1.5 0  7.5 1.5 0  8 1.5 0  8.5 1.5 0  9 1.5 0  9.5 1.5 0  10 1.5 0  0 2 0  0.5 2 0  1 2 0  1.5 2 0  2 2 0  2.5 2 0  3 2 0  3.5 2 0  4 2 0  4.5 2 0  5 2 0  5.5 2 0  6 2 0  6.5 2 0  7 2 0  7.5 2 0  8 2 0  8.5 2 0  9 2 0  9.5 2 0  10 2 0  0 2.5 0  0.5 2.5 0  1 2.5 0  1.5 2.5 0  2 2.5 0  2.5 2.5 0  3 2.5 0  3.5 2.5 0  4 2.5 0  4.5 2.5 0  5 2.5 0  5.5 2.5 0  6 2.5 0  6.5 2.5 0  7 2.5 0  7.5 2.5 0  8 2.5 0  8.5 2.5 0  9 2.5 0  9.5 2.5 0  10 2.5 0  0 3 0  0.5 3 0  1 3 0  1.5 3 0  2 3 0  2.5 3 0  3 3 0  3.5 3 0  4 3 0  4.5 3 0  5 3 0  5.5 3 0  6 3 0  6.5 3 0  7 3 0  7.5 3 0  8 3 0  8.5 3 0  9 3 0  9.5 3 0  10 3 0  0 0 0.1  0.5 0 0.1  1 0 0.1  1.5 0 0.1  2 0 0.1  2.5 0 0.1  3 0 0.1  3.5 0 0.1  4 0 0.1  4.5 0 0.1  5 0 0.1  5.5 0 0.1  6 0 0.1  6.5 0 0.1  7 0 0.1  7.5 0 0.1  8 0 0.1  8.5 0 0.1  9 0 0.1  9.5 0 0.1  10 0 0.1  0 0.5 0.1  0.5 0.5 0.1  1 0.5 0.1  1.5 0.5 0.1  2 0.5 0.1  2.5 0.5 0.1  3 0.5 0.1  3.5 0.5 0.1  4 0.5 0.1  4.5 0.5 0.1  5 0.5 0.1  5.5 0.5 0.1  6 0.5 0.1  6.5 0.5 0.1  7 0.5 0.1  7.5 0.5 0.1  8 0.5 0.1  8.5 0.5 0.1  9 0.5 0.1  9.5 0.5 0.1  10 0.5 0.1  0 1 0.1  0.5 1 0.1  1 1 0.1  1.5 1 0.1  2 1 0.1  2.5 1 0.1  3 1 0.1  3.5 1 0.1  4 1 0.1  4.5 1 0.1  5 1 0.1  5.5 1 0.1  6 1 0.1  6.5 1 0.1  7 1 0.1  7.5 1 0.1  8 1 0.1  8.5 1 0.1  9 1 0.1  9.5 1 0.1  10 1 0.1  0 1.5 0.1  0.5 1.5 0.1  1 1.5 0.1  1.5 1.5 0.1  2 1.5 0.1  2.5 1.5 0.1  3 1.5 0.1  3.5 1.5 0.1  4 1.5 0.1  4.5 1.5 0.1  5 1.5 0.1  5.5 1.5 0.1  6 1.5 0.1  6.5 1.5 0.1  7 1.5 0.1  7.5 1.5 0.1  8 1.5 0.1  8.5 1.5 0.1  9 1.5 0.1  9.5 1.5 0.1  10 1.5 0.1  0 2 0.1  0.5 2 0.1  1 2 0.1  1.5 2 0.1  2 2 0.1  2.5 2 0.1  3 2 0.1  3.5 2 0.1  4 2 0.1  4.5 2 0.1  5 2 0.1  5.5 2 0.1  6 2 0.1  6.5 2 0.1  7 2 0.1  7.5 2 0.1  8 2 0.1  8.5 2 0.1  9 2 0.1  9.5 2 0.1  10 2 0.1  0 2.5 0.1  0.5 2.5 0.1  1 2.5 0.1  1.5 2.5 0.1  2 2.5 0.1  2.5 2.5 0.1  3 2.5 0.1  3.5 2.5 0.1  4 2.5 0.1  4.5 2.5 0.1  5 2.5 0.1  5.5 2.5 0.1  6 2.5 0.1  6.5 2.5 0.1  7 2.5 0.1  7.5 2.5 0.1  8 2.5 0.1  8.5 2.5 0.1  9 2.5 0.1  9.5 2.5 0.1  10 2.5 0.1  0 3 0.1  0.5 3 0.1  1 3 0.1  1.5 3 0.1  2 3 0.1  2.5 3 0.1  3 3 0.1  3.5 3 0.1  4 3 0.1  4.5 3 0.1  5 3 0.1  5.5 3 0.1  6 3 0.1  6.5 3 0.1  7 3 0.1  7.5 3 0.1  8 3 0.1  8.5 3 0.1  9 3 0.1  9.5 3 0.1  10 3 0.1  0 0 0.2  0.5 0 0.2  1 0 0.2  1.5 0 0.2  2 0 0.2  2.5 0 0.2  3 0 0.2  3.5 0 0.2  4 0 0.2  4.5 0 0.2  5 0 0.2  5.5 0 0.2  6 0 0.2  6.5 0 0.2  7 0 0.2  7.5 0 0.2  8 0 0.2  8.5 0 0.2  9 0 0.2  9.5 0 0.2  10 0 0.2  0 0.5 0.2  0.5 0.5 0.2  1 0.5 0.2  1.5 0.5 0.2  2 0.5 0.2  2.5 0.5 0.2  3 0.5 0.2  3.5 0.5 0.2  4 0.5 0.2  4.5 0.5 0.2  5 0.5 0.2  5.5 0.5 0.2  6 0.5 0.2  6.5 0.5 0.2  7 0.5 0.2  7.5 0.5 0.2  8 0.5 0.2  8.5 0.5 0.2  9 0.5 0.2  9.5 0.5 0.2  10 0.5 0.2  0 1 0.2  0.5 1 0.2  1 1 0.2  1.5 1 0.2  2 1 0.2  2.5 1 0.2  3 1 0.2  3.5 1 0.2  4 1 0.2  4.5 1 0.2  5 1 0.2  5.5 1 0.2  6 1 0.2  6.5 1 0.2  7 1 0.2  7.5 1 0.2  8 1 0.2  8.5 1 0.2  9 1 0.2  9.5 1 0.2  10 1 0.2  0 1.5 0.2  0.5 1.5 0.2  1 1.5 0.2  1.5 1.5 0.2  2 1.5 0.2  2.5 1.5 0.2  3 1.5 0.2  3.5 1.5 0.2  4 1.5 0.2  4.5 1.5 0.2  5 1.5 0.2  5.5 1.5 0.2  6 1.5 0.2  6.5 1.5 0.2  7 1.5 0.2  7.5 1.5 0.2  8 1.5 0.2  8.5 1.5 0.2  9 1.5 0.2  9.5 1.5 0.2  10 1.5 0.2  0 2 0.2  0.5 2 0.2  1 2 0.2  1.5 2 0.2  2 2 0.2  2.5 2 0.2  3 2 0.2  3.5 2 0.2  4 2 0.2  4.5 2 0.2  5 2 0.2  5.5 2 0.2  6 2 0.2  6.5 2 0.2  7 2 0.2  7.5 2 0.2  8 2 0.2  8.5 2 0.2  9 2 0.2  9.5 2 0.2  10 2 0.2  0 2.5 0.2  0.5 2.5 0.2  1 2.5 0.2  1.5 2.5 0.2  2 2.5 0.2  2.5 2.5 0.2  3 2.5 0.2  3.5 2.5 0.2  4 2.5 0.2  4.5 2.5 0.2  5 2.5 0.2  5.5 2.5 0.2  6 2.5 0.2  6.5 2.5 0.2  7 2.5 0.2  7.5 2.5 0.2  8 2.5 0.2  8.5 2.5 0.2  9 2.5 0.2  9.5 2.5 0.2  10 2.5 0.2  0 3 0.2  0.5 3 0.2  1 3 0.2  1.5 3 0.2  2 3 0.2  2.5 3 0.2  3 3 0.2  3.5 3 0.2  4 3 0.2  4.5 3 0.2  5 3 0.2  5.5 3 0.2  6 3 0.2  6.5 3 0.2  7 3 0.2  7.5 3 0.2  8 3 0.2  8.5 3 0.2  9 3 0.2  9.5 3 0.2  10 3 0.2  0 0 0.3  0.5 0 0.3  1 0 0.3  1.5 0 0.3  2 0 0.3  2.5 0 0.3  3 0 0.3  3.5 0 0.3  4 0 0.3  4.5 0 0.3  5 0 0.3  5.5 0 0.3  6 0 0.3  6.5 0 0.3  7 0 0.3  7.5 0 0.3  8 0 0.3  8.5 0 0.3  9 0 0.3  9.5 0 0.3  10 0 0.3  0 0.5 0.3  0.5 0.5 0.3  1 0.5 0.3  1.5 0.5 0.3  2 0.5 0.3  2.5 0.5 0.3  3 0.5 0.3  3.5 0.5 0.3  4 0.5 0.3  4.5 0.5 0.3  5 0.5 0.3  5.5 0.5 0.3  6 0.5 0.3  6.5 0.5 0.3  7 0.5 0.3  7.5 0.5 0.3  8 0.5 0.3  8.5 0.5 0.3  9 0.5 0.3  9.5 0.5 0.3  10 0.5 0.3  0 1 0.3  0.5 1 0.3  1 1 0.3  1.5 1 0.3  2 1 0.3  2.5 1 0.3  3 1 0.3  3.5 1 0.3  4 1 0.3  4.5 1 0.3  5 1 0.3  5.5 1 0.3  6 1 0.3  6.5 1 0.3  7 1 0.3  7.5 1 0.3  8 1 0.3  8.5 1 0.3  9 1 0.3  9.5 1 0.3  10 1 0.3  0 1.5 0.3  0.5 1.5 0.3  1 1.5 0.3  1.5 1.5 0.3  2 1.5 0.3  2.5 1.5 0.3  3 1.5 0.3  3.5 1.5 0.3  4 1.5 0.3  4.5 1.5 0.3  5 1.5 0.3  5.5 1.5 0.3  6 1.5 0.3  6.5 1.5 0.3  7 1.5 0.3  7.5 1.5 0.3  8 1.5 0.3  8.5 1.5 0.3  9 1.5 0.3  9.5 1.5 0.3  10 1.5 0.3  0 2 0.3  0.5 2 0.3  1 2 0.3  1.5 2 0.3  2 2 0.3  2.5 2 0.3  3 2 0.3  3.5 2 0.3  4 2 0.3  4.5 2 0.3  5 2 0.3  5.5 2 0.3  6 2 0.3  6.5 2 0.3  7 2 0.3  7.5 2 0.3  8 2 0.3  8.5 2 0.3  9 2 0.3  9.5 2 0.3  10 2 0.3  0 2.5 0.3  0.5 2.5 0.3  1 2.5 0.3  1.5 2.5 0.3  2 2.5 0.3  2.5 2.5 0.3  3 2.5 0.3  3.5 2.5 0.3  4 2.5 0.3  4.5 2.5 0.3  5 2.5 0.3  5.5 2.5 0.3  6 2.5 0.3  6.5 2.5 0.3  7 2.5 0.3  7.5 2.5 0.3  8 2.5 0.3  8.5 2.5 0.3  9 2.5 0.3  9.5 2.5 0.3  10 2.5 0.3  0 3 0.3  0.5 3 0.3  1 3 0.3  1.5 3 0.3  2 3 0.3  2.5 3 0.3  3 3 0.3  3.5 3 0.3  4 3 0.3  4.5 3 0.3  5 3 0.3  5.5 3 0.3  6 3 0.3  6.5 3 0.3  7 3 0.3  7.5 3 0.3  8 3 0.3  8.5 3 0.3  9 3 0.3  9.5 3 0.3  10 3 0.3  0 0 0.4  0.5 0 0.4  1 0 0.4  1.5 0 0.4  2 0 0.4  2.5 0 0.4  3 0 0.4  3.5 0 0.4  4 0 0.4  4.5 0 0.4  5 0 0.4  5.5 0 0.4  6 0 0.4  6.5 0 0.4  7 0 0.4  7.5 0 0.4  8 0 0.4  8.5 0 0.4  9 0 0.4  9.5 0 0.4  10 0 0.4  0 0.5 0.4  0.5 0.5 0.4  1 0.5 0.4  1.5 0.5 0.4  2 0.5 0.4  2.5 0.5 0.4  3 0.5 0.4  3.5 0.5 0.4  4 0.5 0.4  4.5 0.5 0.4  5 0.5 0.4  5.5 0.5 0.4  6 0.5 0.4  6.5 0.5 0.4  7 0.5 0.4  7.5 0.5 0.4  8 0.5 0.4  8.5 0.5 0.4  9 0.5 0.4  9.5 0.5 0.4  10 0.5 0.4  0 1 0.4  0.5 1 0.4  1 1 0.4  1.5 1 0.4  2 1 0.4  2.5 1 0.4  3 1 0.4  3.5 1 0.4  4 1 0.4  4.5 1 0.4  5 1 0.4  5.5 1 0.4  6 1 0.4  6.5 1 0.4  7 1 0.4  7.5 1 0.4  8 1 0.4  8.5 1 0.4  9 1 0.4  9.5 1 0.4  10 1 0.4  0 1.5 0.4  0.5 1.5 0.4  1 1.5 0.4  1.5 1.5 0.4  2 1.5 0.4  2.5 1.5 0.4  3 1.5 0.4  3.5 1.5 0.4  4 1.5 0.4  4.5 1.5 0.4  5 1.5 0.4  5.5 1.5 0.4  6 1.5 0.4  6.5 1.5 0.4  7 1.5 0.4  7.5 1.5 0.4  8 1.5 0.4  8.5 1.5 0.4  9 1.5 0.4  9.5 1.5 0.4  10 1.5 0.4  0 2 0.4  0.5 2 0.4  1 2 0.4  1.5 2 0.4  2 2 0.4  2.5 2 0.4  3 2 0.4  3.5 2 0.4  4 2 0.4  4.5 2 0.4  5 2 0.4  5.5 2 0.4  6 2 0.4  6.5 2 0.4  7 2 0.4  7.5 2 0.4  8 2 0.4  8.5 2 0.4  9 2 0.4  9.5 2 0.4  10 2 0.4  0 2.5 0.4  0.5 2.5 0.4  1 2.5 0.4  1.5 2.5 0.4  2 2.5 0.4  2.5 2.5 0.4  3 2.5 0.4  3.5 2.5 0.4  4 2.5 0.4  4.5 2.5 0.4  5 2.5 0.4  5.5 2.5 0.4  6 2.5 0.4  6.5 2.5 0.4  7 2.5 0.4  7.5 2.5 0.4  8 2.5 0.4  8.5 2.5 0.4  9 2.5 0.4  9.5 2.5 0.4  10 2.5 0.4  0 3 0.4  0.5 3 0.4  1 3 0.4  1.5 3 0.4  2 3 0.4  2.5 3 0.4  3 3 0.4  3.5 3 0.4  4 3 0.4  4.5 3 0.4  5 3 0.4  5.5 3 0.4  6 3 0.4  6.5 3 0.4  7 3 0.4  7.5 3 0.4  8 3 0.4  8.5 3 0.4  9 3 0.4  9.5 3 0.4  10 3 0.4  0 0 0.5  0.5 0 0.5  1 0 0.5  1.5 0 0.5  2 0 0.5  2.5 0 0.5  3 0 0.5  3.5 0 0.5  4 0 0.5  4.5 0 0.5  5 0 0.5  5.5 0 0.5  6 0 0.5  6.5 0 0.5  7 0 0.5  7.5 0 0.5  8 0 0.5  8.5 0 0.5  9 0 0.5  9.5 0 0.5  10 0 0.5  0 0.5 0.5  0.5 0.5 0.5  1 0.5 0.5  1.5 0.5 0.5  2 0.5 0.5  2.5 0.5 0.5  3 0.5 0.5  3.5 0.5 0.5  4 0.5 0.5  4.5 0.5 0.5  5 0.5 0.5  5.5 0.5 0.5  6 0.5 0.5  6.5 0.5 0.5  7 0.5 0.5  7.5 0.5 0.5  8 0.5 0.5  8.5 0.5 0.5  9 0.5 0.5  9.5 0.5 0.5  10 0.5 0.5  0 1 0.5  0.5 1 0.5  1 1 0.5  1.5 1 0.5  2 1 0.5  2.5 1 0.5  3 1 0.5  3.5 1 0.5  4 1 0.5  4.5 1 0.5  5 1 0.5  5.5 1 0.5  6 1 0.5  6.5 1 0.5  7 1 0.5  7.5 1 0.5  8 1 0.5  8.5 1 0.5  9 1 0.5  9.5 1 0.5  10 1 0.5  0 1.5 0.5  0.5 1.5 0.5  1 1.5 0.5  1.5 1.5 0.5  2 1.5 0.5  2.5 1.5 0.5  3 1.5 0.5  3.5 1.5 0.5  4 1.5 0.5  4.5 1.5 0.5  5 1.5 0.5  5.5 1.5 0.5  6 1.5 0.5  6.5 1.5 0.5  7 1.5 0.5  7.5 1.5 0.5  8 1.5 0.5  8.5 1.5 0.5  9 1.5 0.5  9.5 1.5 0.5  10 1.5 0.5  0 2 0.5  0.5 2 0.5  1 2 0.5  1.5 2 0.5  2 2 0.5  2.5 2 0.5  3 2 0.5  3.5 2 0.5  4 2 0.5  4.5 2 0.5  5 2 0.5  5.5 2 0.5  6 2 0.5  6.5 2 0.5  7 2 0.5  7.5 2 0.5  8 2 0.5  8.5 2 0.5  9 2 0.5  9.5 2 0.5  10 2 0.5  0 2.5 0.5  0.5 2.5 0.5  1 2.5 0.5  1.5 2.5 0.5  2 2.5 0.5  2.5 2.5 0.5  3 2.5 0.5  3.5 2.5 0.5  4 2.5 0.5  4.5 2.5 0.5  5 2.5 0.5  5.5 2.5 0.5  6 2.5 0.5  6.5 2.5 0.5  7 2.5 0.5  7.5 2.5 0.5  8 2.5 0.5  8.5 2.5 0.5  9 2.5 0.5  9.5 2.5 0.5  10 2.5 0.5  0 3 0.5  0.5 3 0.5  1 3 0.5  1.5 3 0.5  2 3 0.5  2.5 3 0.5  3 3 0.5  3.5 3 0.5  4 3 0.5  4.5 3 0.5  5 3 0.5  5.5 3 0.5  6 3 0.5  6.5 3 0.5  7 3 0.5  7.5 3 0.5  8 3 0.5  8.5 3 0.5  9 3 0.5  9.5 3 0.5  10 3 0.5  </DataArray>
</Points>
<Cells>
[...]
<PointData  Vectors="f_7-0"> 
<DataArray  type="Float64"  Name="f_7-0"  NumberOfComponents="3" format="ascii">0.0000000000000000e+00 0.0000000000000000e+00 0.0000000000000000e+00  1.5116601915420242e-02 1.3203764714762567e-02 3.5566098580557762e-03  2.9582711243160944e-02 1.8232111962130673e-02 3.3336841831507909e-03  4.2569555824862770e-02 2.0733382662373838e-02 3.4603983901427974e-03  5.6580128886213728e-02 2.1563832794727206e-02 3.6244892694133855e-03  7.1145829956698631e-02 2.1757716148709208e-02 3.7329970699032365e-03  8.6112130972123488e-02 2.1751205389477460e-02 3.7918236445315997e-03  1.0127363683624527e-01 2.1724862428751598e-02 3.8180945597893695e-03  1.1652260347223263e-01 2.1722384108094905e-02 3.8279862856641445e-03  1.3180351219914629e-01 2.1744003497385204e-02 3.8306175471261757e-03  1.4709353057324542e-01 2.1779352094061680e-02 3.8306521895140372e-03  1.6238463382315788e-01 2.1819370246690693e-02 3.8300680678168323e-03  1.7767499007377133e-01 2.1858453265412067e-02 3.8295539969748441e-03  1.9296474454922269e-01 2.1893809038042941e-02 3.8292554626961793e-03  2.0825440810942514e-01 2.1924336078249486e-02 3.8291370203282801e-03  2.2354435266498107e-01 2.1949779723669779e-02 3.8291281954946428e-03  2.3883474407774438e-01 2.1970233683765661e-02 3.8291711696947558e-03  2.5412559644882804e-01 2.1985890737410974e-02 3.8292285848355008e-03  2.6941683631494578e-01 2.1996935784366373e-02 3.8292794662740737e-03  2.8470834971643139e-01 2.2003506399746457e-02 3.8293125114327448e-03  3.0000000000000004e-01 2.2005690042515225e-02 3.8293243605064600e-03  0.0000000000000000e+00 0.0000000000000000e+00 0.0000000000000000e+00  1.0722148388567913e-02 7.0394302616097601e-03 3.7759638676597481e-03  2.6128558230345347e-02 1.2077030003941606e-02 3.9113214497933681e-03  4.0683524578430955e-02 1.4323362814975434e-02 3.7333992551517011e-03  5.5666376063942549e-02 1.4946665863738925e-02 3.7736846910716233e-03  7.0765517582234330e-02 1.4998045621866860e-02 3.7921147643116462e-03  8.5961264847588065e-02 1.4920497674708178e-02 3.8161733354183879e-03  1.0120727351602705e-01 1.4860968358031440e-02 3.8307560327439059e-03  1.1647971179406802e-01 1.4845455377551378e-02 3.8390730106485408e-03  1.3176434844261720e-01 1.4862779317992333e-02 3.8430159439228049e-03  1.4705425379760784e-01 1.4897151271183422e-02 3.8446930874646776e-03  1.6234633661376247e-01 1.4937130515226455e-02 3.8453043058902367e-03  1.7763941644175388e-01 1.4976273973770252e-02 3.8454932239986223e-03  1.9293310784391271e-01 1.5011579705799910e-02 3.8455475643643876e-03  2.0822730339005080e-01 1.5041954891674189e-02 3.8455772651778204e-03  2.2352196089968199e-01 1.5067199870674534e-02 3.8456125113870638e-03  2.3881703368883150e-01 1.5087455186288979e-02 3.8456541087293359e-03  2.5411245689827894e-01 1.5102942358895751e-02 3.8456951208079692e-03  2.6940815140327801e-01 1.5113860445846086e-02 3.8457286818830948e-03  2.8470402926041100e-01 1.5120354679228612e-02 3.8457504492229971e-03  3.0000000000000004e-01 1.5122510319071728e-02 3.8457571263438993e-03  0.0000000000000000e+00 0.0000000000000000e+00 0.0000000000000000e+00  8.6140204120319416e-03 2.5576825454362538e-03 4.1534341598496423e-03  2.3411692466031746e-02 6.0321885728611682e-03 4.3245630225950170e-03  3.8716458542943685e-02 7.5662317385168758e-03 3.9777480242428834e-03  5.4498380832035800e-02 7.9523277600147164e-03 3.9002874077163326e-03  7.0145185755628073e-02 7.9889549792511987e-03 3.8556191093593924e-03  8.5650593860240709e-02 7.9522980302069220e-03 3.8483978942781476e-03  1.0105155619842918e-01 7.9316909081677232e-03 3.8500481591576658e-03  1.1639297588629487e-01 7.9408720089035028e-03 3.8542991031931340e-03  1.3170584326049803e-01 7.9710928700117076e-03 3.8576466529722827e-03  1.4700715095666558e-01 8.0111277443304322e-03 3.8598098468630320e-03  1.6230492358536339e-01 8.0530763394649173e-03 3.8610087812739387e-03  1.7760236164311141e-01 8.0925754756133485e-03 3.8616182309863275e-03  1.9290044156380481e-01 8.1276672950989434e-03 3.8619090233335211e-03  2.0819927351065606e-01 8.1577071430940784e-03 3.8620458027926897e-03  2.2349870924033752e-01 8.1826536039127495e-03 3.8621139724309230e-03  2.3879857223587941e-01 8.2026837144201070e-03 3.8621529558262855e-03  2.5409872174918113e-01 8.2180142055082190e-03 3.8621785506417201e-03  2.6939905629986366e-01 8.2288311630911090e-03 3.8621959867056591e-03  2.8469950195031529e-01 8.2352685747087082e-03 3.8622062056698114e-03  3.0000000000000004e-01 8.2374061441641590e-03 3.8622094942773275e-03  0.0000000000000000e+00 0.0000000000000000e+00 0.0000000000000000e+00  8.1321936631133553e-03 1.5079034446930403e-04 3.9909899455438857e-03  2.2112243082118066e-02 4.3945996589364594e-04 4.5502744391542355e-03  3.7756023716107485e-02 6.0633319554632492e-04 4.1016797311526345e-03  5.3912114545491940e-02 6.9219876775111224e-04 3.9605812958677924e-03  6.9804061635848069e-02 7.7698110318965825e-04 3.8925096718957801e-03  8.5450046600380053e-02 8.6044429971303849e-04 3.8715976571053537e-03  1.0092875263227651e-01 9.3637912447005079e-04 3.8683839799708540e-03  1.1630920459899242e-01 1.0047515750221062e-03 3.8708481297622674e-03  1.3164189569059745e-01 1.0654219482869678e-03 3.8738640672478101e-03  1.4695406516135850e-01 1.1189687069618471e-03 3.8761141245086217e-03  1.6225909333254365e-01 1.1658852344408790e-03 3.8774632942877112e-03  1.7756246813404386e-01 1.2066571890318367e-03 3.8781706903778450e-03  1.9286603742039049e-01 1.2417009887547910e-03 3.8784997232089329e-03  2.0817016855230477e-01 1.2713768190521515e-03 3.8786336145970953e-03  2.2347476099295269e-01 1.2959892428296700e-03 3.8786781081830680e-03  2.3877963751357376e-01 1.3157909479212064e-03 3.8786868796344930e-03  2.5408466217075926e-01 1.3309852619614400e-03 3.8786841308043720e-03  2.6938975418533179e-01 1.3417282316682212e-03 3.8786793776669566e-03  2.8469487272176508e-01 1.3481302021432079e-03 3.8786758331031713e-03  3.0000000000000004e-01 1.3502569556572870e-03 3.8786744226685689e-03  0.0000000000000000e+00 0.0000000000000000e+00 0.0000000000000000e+00  8.4538995634810300e-03 -2.2057562995290532e-03 4.1169154323414609e-03  2.3036193835555420e-02 -4.9825923970113926e-03 4.4220120869072127e-03  3.8342803062127999e-02 -6.3948501113249802e-03 4.0072946227203135e-03  5.4255193794123038e-02 -6.5975652996268959e-03 3.9373795289909799e-03  6.9940311223698398e-02 -6.4440643566699412e-03 3.8882830723247705e-03  8.5471668085954425e-02 -6.2376105464175121e-03 3.8809744911082939e-03  1.0089366692860662e-01 -6.0631236234803421e-03 3.8834724411618317e-03  1.1625271609086665e-01 -5.9351962200568289e-03 3.8881261567110031e-03  1.3158187630332382e-01 -5.8437281505299230e-03 3.8916048642802675e-03  1.4689812690437490e-01 -5.7764323765203468e-03 3.8937280133388699e-03  1.6220975953622085e-01 -5.7243166130330793e-03 3.8947930104986498e-03  1.7752008245688916e-01 -5.6820695368151640e-03 3.8952399638671081e-03  1.9283020547610230e-01 -5.6468968448840483e-03 3.8953708638490244e-03  2.0814035907572073e-01 -5.6174349475339039e-03 3.8953648960298147e-03  2.2345051108928135e-01 -5.5930321212669656e-03 3.8953126749597259e-03  2.3876059496043708e-01 -5.5733588423933240e-03 3.8952546468613565e-03  2.5407057507248282e-01 -5.5582241113608048e-03 3.8952060268204187e-03  2.6938045097084296e-01 -5.5475010504063248e-03 3.8951712732582561e-03  2.8469024671766141e-01 -5.5411025799584372e-03 3.8951506630760160e-03  3.0000000000000004e-01 -5.5389759174792061e-03 3.8951436360945440e-03  0.0000000000000000e+00 0.0000000000000000e+00 0.0000000000000000e+00  1.0239340585063700e-02 -5.8443524506686679e-03 4.3709857394228623e-03  2.5438383982545915e-02 -1.1165658642018322e-02 3.9119437610122838e-03  4.0172159802492113e-02 -1.3238226665255804e-02 3.7969249015642054e-03  5.5220318104739416e-02 -1.3616266774245683e-02 3.8352913287296904e-03  7.0372810006285633e-02 -1.3474977796066516e-02 3.8576790731679744e-03  8.5609679859511900e-02 -1.3220069001031624e-02 3.8828635796688783e-03  1.0089540993897347e-01 -1.3005517453847501e-02 3.8991066570229771e-03  1.1620240021227438e-01 -1.2851309222630641e-02 3.9076346335472452e-03  1.3151927426206303e-01 -1.2746023504637034e-02 3.9114292557583330e-03  1.4683873658961727e-01 -1.2672169420163934e-02 3.9127432483765249e-03  1.6215822260726240e-01 -1.2617345204856306e-02 3.9129462904003640e-03  1.7747677072015627e-01 -1.2574105851050767e-02 3.9127443924437278e-03  1.9279426601347296e-01 -1.2538610822854434e-02 3.9124539051836977e-03  2.0811084057819240e-01 -1.2509035486700230e-02 3.9121909256732788e-03  2.2342668141669866e-01 -1.2484561751695007e-02 3.9119850325846561e-03  2.3874195883562321e-01 -1.2464817644941313e-02 3.9118341104827283e-03  2.5405681546438452e-01 -1.2449612811916594e-02 3.9117282816080595e-03  2.6937137144931544e-01 -1.2438830701652600e-02 3.9116587376963373e-03  2.8468573344104553e-01 -1.2432393068484827e-02 3.9116184152866110e-03  3.0000000000000004e-01 -1.2430252749029154e-02 3.9116052068712097e-03  0.0000000000000000e+00 0.0000000000000000e+00 0.0000000000000000e+00  1.4545566810207180e-02 -1.1872876028697152e-02 3.2778390538685197e-03  2.9100406298921171e-02 -1.7522106564942214e-02 3.5435795982563362e-03  4.1864635652224154e-02 -1.9601826061332494e-02 3.5119354360752903e-03  5.5950969677603712e-02 -2.0268080923451608e-02 3.7338672448250362e-03  7.0566298589573556e-02 -2.0256552941732484e-02 3.8285020583322710e-03  8.5597548700181741e-02 -2.0073698342283612e-02 3.8955657994162239e-03  1.0081439896310129e-01 -1.9889337184778470e-02 3.9216546386103106e-03  1.1611514681285347e-01 -1.9746640228293040e-02 3.9316486251948996e-03  1.3144315483327013e-01 -1.9644096682483542e-02 3.9335197713040665e-03  1.4677666109214485e-01 -1.9569958029250187e-02 3.9328243590783666e-03  1.6210801071020742e-01 -1.9514047340295850e-02 3.9315197724665808e-03  1.7743580189200553e-01 -1.9469770438431271e-02 3.9303813777344871e-03  1.9276055372997639e-01 -1.9433481960053178e-02 3.9295542452939180e-03  2.0808312602501897e-01 -1.9403342291829665e-02 3.9289965736279036e-03  2.2340422391494619e-01 -1.9378472303897755e-02 3.9286291366103822e-03  2.3872433039324925e-01 -1.9358447794366601e-02 3.9283866059638475e-03  2.5404376377289517e-01 -1.9343045188661843e-02 3.9282264089598009e-03  2.6936274398912574e-01 -1.9332129839848774e-02 3.9281239743196366e-03  2.8468144156173292e-01 -1.9325614370878440e-02 3.9280660211748562e-03  3.0000000000000004e-01 -1.9323450775374288e-02 3.9280475903575559e-03  0.0000000000000000e+00 0.0000000000000000e+00 0.0000000000000000e+00  1.5374347188276110e-02 1.3071812586599858e-02 2.3023975482453028e-03  2.9543860447040323e-02 1.8176760572214044e-02 2.1473014151969587e-03  4.2553275226119278e-02 2.0689939998801813e-02 2.2261354259404723e-03  5.6561072130742997e-02 2.1544737854560118e-02 2.3305893028958400e-03  7.1134516912468554e-02 2.1750174766303212e-02 2.3972309912275555e-03  8.6106246714746398e-02 2.1748127503193545e-02 2.4326274880880133e-03  1.0127113279370344e-01 2.1722829756139737e-02 2.4479891485256573e-03  1.1652171273936490e-01 2.1720254210045652e-02 2.4534313557010149e-03  1.3180331118660624e-01 2.1741497356858208e-02 2.4545881803567037e-03  1.4709355893654660e-01 2.1776520613084310e-02 2.4542927421168999e-03  1.6238470596837440e-01 2.1816325387194749e-02 2.4537206391256430e-03  1.7767504559806832e-01 2.1855289638235853e-02 2.4532630489807281e-03  1.9296477408045415e-01 2.1890587412328005e-02 2.4529861711067177e-03  2.0825441794009555e-01 2.1921090310664956e-02 2.4528522479060426e-03  2.2354435122564004e-01 2.1946526494651383e-02 2.4528071673002327e-03  2.3883473782367845e-01 2.1966980158131467e-02 2.4528081686733321e-03  2.5412558941850533e-01 2.1982639299531346e-02 2.4528275200214294e-03  2.6941683084910850e-01 2.1993686511545346e-02 2.4528492281448468e-03  2.8470834660643274e-01 2.2000258751191468e-02 2.4528645463893456e-03  3.0000000000000004e-01 2.2002443317219757e-02 2.4528706283798128e-03  0.0000000000000000e+00 0.0000000000000000e+00 0.0000000000000000e+00  1.1083303986424334e-02 7.0237481360058539e-03 2.4147776795767602e-03  2.6075263524464716e-02 1.2001719861199623e-02 2.4937752502543166e-03  4.0685882018272918e-02 1.4279149108328920e-02 2.3750601098219267e-03  5.5662250180613639e-02 1.4921589733378189e-02 2.4227363823230443e-03  7.0760705509645985e-02 1.4987033042559439e-02 2.4335927971495799e-03  8.5958207823160951e-02 1.4915203075780674e-02 2.4506558543093341e-03  1.0120548339176143e-01 1.4857926457959464e-02 2.4599059700643479e-03  1.1647883130594343e-01 1.4842885435396289e-02 2.4651442454636800e-03  1.3176396523448594e-01 1.4860120157291991e-02 2.4675206296038985e-03  1.4705411137191327e-01 1.4894279677358261e-02 2.4684854056856317e-03  1.6234629398732442e-01 1.4934084126970245e-02 2.4687973166065986e-03  1.7763940775629244e-01 1.4973116693880894e-02 2.4688633277851844e-03  1.9293310642041733e-01 1.5008362969259750e-02 2.4688595773603482e-03  2.0822730093272276e-01 1.5038710933401261e-02 2.4688513754906201e-03  2.2352195630806249e-01 1.5063946156386482e-02 2.4688546300345314e-03  2.3881702805237431e-01 1.5084199939772058e-02 2.4688676808016954e-03  2.5411245155702761e-01 1.5099688713709617e-02 2.4688846280801341e-03  2.6940814731120027e-01 1.5110609046181001e-02 2.4689001124423202e-03  2.8470402713189552e-01 1.5117104839507560e-02 2.4689106875214976e-03  3.0000000000000004e-01 1.5119261617123764e-02 2.4689138696764425e-03  0.0000000000000000e+00 0.0000000000000000e+00 0.0000000000000000e+00  8.7748308131138739e-03 2.5761376072730297e-03 2.6500295645060130e-03  2.3379223871858364e-02 5.9782967392414026e-03 2.7408440762134905e-03  3.8742018647340351e-02 7.5339310066448225e-03 2.5203848178127252e-03  5.4510266680838214e-02 7.9352010648971738e-03 2.5021470520683684e-03  7.0147279753406996e-02 7.9794101356064229e-03 2.4744969321818383e-03  8.5651023263078746e-02 7.9467002007171956e-03 2.4742637144418980e-03  1.0105089989307948e-01 7.9278362266334591e-03 2.4763028699450232e-03  1.1639237113759156e-01 7.9376386362050647e-03 2.4796025571553653e-03  1.3170540757538132e-01 7.9680026482091063e-03 2.4819323860200411e-03  1.4700689480242593e-01 8.0080127474825985e-03 2.4833986805695768e-03  1.6230478772608223e-01 8.0499035863976602e-03 2.4841957946796092e-03  1.7760229527474414e-01 8.0893566389357349e-03 2.4845975055326412e-03  1.9290041062109065e-01 8.1244214151792657e-03 2.4847869754040753e-03  2.0819925902744046e-01 8.1544491245916749e-03 2.4848742910330841e-03  2.2349870182668496e-01 8.1793924123297890e-03 2.4849160947392583e-03  2.3879856780901371e-01 8.1994237397509887e-03 2.4849387360862396e-03  2.5409871877880097e-01 8.2147569851586041e-03 2.4849529438088613e-03  2.6939905436849482e-01 8.2255766336806757e-03 2.4849624012415104e-03  2.8469950095302632e-01 8.2320159475394155e-03 2.4849679160700534e-03  3.0000000000000004e-01 8.2341542677104775e-03 2.4849697233190783e-03  0.0000000000000000e+00 0.0000000000000000e+00 0.0000000000000000e+00  8.2309994833516479e-03 1.6358332856565390e-04 2.5368275975037064e-03  2.2066063173375800e-02 4.4426663924274665e-04 2.8770274347718816e-03  3.7799695806695878e-02 6.0018572427054798e-04 2.6040832834443241e-03  5.3931334632829113e-02 6.8673379234995249e-04 2.5441259732662471e-03  6.9808367890973569e-02 7.7321003494092806e-04 2.5019446391111679e-03  8.5451947952779411e-02 8.5670444554431988e-04 2.4935509961411589e-03  1.0092847543371782e-01 9.3286974471021441e-04 2.4928970059937407e-03  1.1630873545789196e-01 1.0013090795625947e-03 2.4953050658866830e-03  1.3164144954669957e-01 1.0620408629954891e-03 2.4975898261777765e-03  1.4695378026674261e-01 1.1156190302364164e-03 2.4992096694134709e-03  1.6225893310048134e-01 1.1625589947049308e-03 2.5001621678045417e-03  1.7756238927014578e-01 1.2033479598965694e-03 2.5006617114900552e-03  1.9286600300856160e-01 1.2384055078488705e-03 2.5008972096203907e-03  2.0817015585626278e-01 1.2680927095887722e-03 2.5009961069815778e-03  2.2347475763463395e-01 1.2927145517669684e-03 2.5010313665260859e-03  2.3877963755432030e-01 1.3125238722533463e-03 2.5010402719944820e-03  2.5408466307228161e-01 1.3277240609896794e-03 2.5010399792881710e-03  2.6938975500387374e-01 1.3384712026335362e-03 2.5010375318382373e-03  2.8469487319160736e-01 1.3448756678775505e-03 2.5010355073258280e-03  3.0000000000000004e-01 1.3470032018140044e-03 2.5010346236803379e-03  0.0000000000000000e+00 0.0000000000000000e+00 0.0000000000000000e+00  8.6036431275646683e-03 -2.2244687827058154e-03 2.6294604243900753e-03  2.2986146935800537e-02 -4.9380828111460417e-03 2.8130370987250828e-03  3.8389070872718048e-02 -6.3769173964290000e-03 2.5570700686981789e-03  5.4266867111689633e-02 -6.5872270211156858e-03 2.5389882687001462e-03  6.9942266926957430e-02 -6.4424463657562596e-03 2.5066818013326623e-03  8.5472219846668085e-02 -6.2392557477480752e-03 2.5062788230864339e-03  1.0089279980447295e-01 -6.0662746304494062e-03 2.5086334274067000e-03  1.1625206707852832e-01 -5.9387986029569122e-03 2.5121761371140216e-03  1.3158140857658771e-01 -5.8473816232806645e-03 2.5146119490632749e-03  1.4689787913666133e-01 -5.7800037904685523e-03 2.5160856825598211e-03  1.6220964351165093e-01 -5.7277904538404903e-03 2.5168215687557012e-03  1.7752004064511201e-01 -5.6854658316117038e-03 2.5171367208881908e-03  1.9283019816634123e-01 -5.6502398336458854e-03 2.5172354691210879e-03  2.0814036531276273e-01 -5.6207434824529015e-03 2.5172393161788185e-03  2.2345052077670513e-01 -5.5963187767636554e-03 2.5172096576163575e-03  2.3876060396514956e-01 -5.5766315206565685e-03 2.5171742930263420e-03  2.5407058199108146e-01 -5.5614877918897104e-03 2.5171439984141859e-03  2.6938045554799728e-01 -5.5507590724587731e-03 2.5171221300336472e-03  2.8469024900871970e-01 -5.5443573930056963e-03 2.5171091302437624e-03  3.0000000000000004e-01 -5.5422299022133831e-03 2.5171046114755165e-03  0.0000000000000000e+00 0.0000000000000000e+00 0.0000000000000000e+00  1.0470439144402257e-02 -5.7289983950292011e-03 2.7871961854480762e-03  2.5439100916382774e-02 -1.1129934826268619e-02 2.5187213062987544e-03  4.0183074030914770e-02 -1.3194690378332537e-02 2.4500894170708634e-03  5.5218590697639493e-02 -1.3601509667359613e-02 2.4889904943734636e-03  7.0367606462397925e-02 -1.3471710327069930e-02 2.4990456772541305e-03  8.5607037637567593e-02 -1.3221883032557655e-02 2.5158314253123024e-03  1.0089341089913360e-01 -1.3009248985432606e-02 2.5257562880149436e-03  1.1620152911874483e-01 -1.2855415476742177e-02 2.5309376652221526e-03  1.3151889397062069e-01 -1.2750013635994074e-02 2.5332487158820742e-03  1.4683863692054624e-01 -1.2675935070898718e-02 2.5340142860077451e-03  1.6215823122695941e-01 -1.2620920005799931e-02 2.5341046504726446e-03  1.7747681445492328e-01 -1.2577550041199093e-02 2.5339496362332542e-03  1.9279431238395756e-01 -1.2541974250451112e-02 2.5337465103068588e-03  2.0811087919160021e-01 -1.2512351301900633e-02 2.5335661402434060e-03  2.2342671057307170e-01 -1.2487849811509237e-02 2.5334261587390910e-03  2.3874197972552380e-01 -1.2468089263339713e-02 2.5333242431071312e-03  2.5405682968632315e-01 -1.2452874467289982e-02 2.5332532992585481e-03  2.6937138033695812e-01 -1.2442086368588214e-02 2.5332070016812784e-03  2.8468573768383137e-01 -1.2435645545498267e-02 2.5331804916788811e-03  3.0000000000000004e-01 -1.2433504751338541e-02 2.5331717646416485e-03  0.0000000000000000e+00 0.0000000000000000e+00 0.0000000000000000e+00  1.5384143815733456e-02 -1.2093068839218504e-02 2.2206800128648971e-03  2.9020062968795529e-02 -1.7498305039489223e-02 2.3572340078666025e-03  4.1855068636284548e-02 -1.9537648768821490e-02 2.2840819818525640e-03  5.5936958731835108e-02 -2.0256411013484254e-02 2.4494966336933185e-03  7.0552731501850707e-02 -2.0245507266903516e-02 2.4888226635110373e-03  8.5592198204617581e-02 -2.0075275839546491e-02 2.5338724983827647e-03  1.0081129849041749e-01 -1.9892702005461178e-02 2.5470001571881820e-03  1.1611424678426463e-01 -1.9750999487461621e-02 2.5527857766400319e-03  1.3144293112849634e-01 -1.9648277016366962