<?xml version="1.0"?>
<VTKFile type="UnstructuredGrid"  version="0.1"  >
<UnstructuredGrid>
<Piece  NumberOfPoints="2976" NumberOfCells="13500">
<Points>
<DataArray  type="Float64"  NumberOfComponents="3"  format="ascii">0 0 0  0.3333333333333333 0 0  0.6666666666666666 0 0  1 0 0  1.333333333333333 0 0  1.666666666666667 0 0  2 0 0  2.333333333333333 0 0  2.666666666666667 0 0  3 0 0  3.333333333333333 0 0  3.666666666666667 0 0  4 0 0  4.333333333333333 0 0  4.666666666666667 0 0  5 0 0  5.333333333333333 0 0  5.666666666666667 0 0  6 0 0  6.333333333333333 0 0  6.666666666666667 0 0  7 0 0  7.333333333333333 0 0  7.666666666666667 0 0  8 0 0  8.333333333333334 0 0  8.666666666666666 0 0  9 0 0  9.333333333333334 0 0  9.666666666666666 0 0  10 0 0  0 0.2 0  0.3333333333333333 0.2 0  0.6666666666666666 0.2 0  1 0.2 0  1.333333333333333 0.2 0  1.666666666666667 0.2 0  2 0.2 0  2.333333333333333 0.2 0  2.666666666666667 0.2 0  3 0.2 0  3.333333333333333 0.2 0  3.666666666666667 0.2 0  4 0.2 0  4.333333333333333 0.2 0  4.666666666666667 0.2 0  5 0.2 0  5.333333333333333 0.2 0  5.666666666666667 0.2 0  6 0.2 0  6.333333333333333 0.2 0  6.666666666666667 0.2 0  7 0.2 0  7.333333333333333 0.2 0  7.666666666666667 0.2 0  8 0.2 0  8.333333333333334 0.2 0  8.666666666666666 0.2 0  9 0.2 0  9.333333333333334 0.2 0  9.666666666666666 0.2 0  10 0.2 0  0 0.4 0  0.3333333333333333 0.4 0  0.6666666666666666 0.4 0  1 0.4 0  1.333333333333333 0.4 0  1.666666666666667 0.4 0  2 0.4 0  2.333333333333333 0.4 0  2.666666666666667 0.4 0  3 0.4 0  3.333333333333333 0.4 0  3.666666666666667 0.4 0  4 0.4 0  4.333333333333333 0.4 0  4.666666666666667 0.4 0  5 0.4 0  5.333333333333333 0.4 0  5.666666666666667 0.4 0  6 0.4 0  6.333333333333333 0.4 0  6.666666666666667 0.4 0  7 0.4 0  7.333333333333333 0.4 0  7.666666666666667 0.4 0  8 0.4 0  8.333333333333334 0.4 0  8.666666666666666 0.4 0  9 0.4 0  9.333333333333334 0.4 0  9.666666666666666 0.4 0  10 0.4 0  0 0.6 0  0.3333333333333333 0.6 0  0.6666666666666666 0.6 0  1 0.6 0  1.333333333333333 0.6 0  1.666666666666667 0.6 0  2 0.6 0  2.333333333333333 0.6 0  2.666666666666667 0.6 0  3 0.6 0  3.333333333333333 0.6 0  3.666666666666667 0.6 0  4 0.6 0  4.333333333333333 0.6 0  4.666666666666667 0.6 0  5 0.6 0  5.333333333333333 0.6 0  5.666666666666667 0.6 0  6 0.6 0  6.333333333333333 0.6 0  6.666666666666667 0.6 0  7 0.6 0  7.333333333333333 0.6 0  7.666666666666667 0.6 0  8 0.6 0  8.333333333333334 0.6 0  8.666666666666666 0.6 0  9 0.6 0  9.333333333333334 0.6 0  9.666666666666666 0.6 0  10 0.6 0  0 0.8 0  0.3333333333333333 0.8 0  0.6666666666666666 0.8 0  1 0.8 0  1.333333333333333 0.8 0  1.666666666666667 0.8 0  2 0.8 0  2.333333333333333 0.8 0  2.666666666666667 0.8 0  3 0.8 0  3.333333333333333 0.8 0  3.666666666666667 0.8 0  4 0.8 0  4.333333333333333 0.8 0  4.666666666666667 0.8 0  5 0.8 0  5.333333333333333 0.8 0  5.666666666666667 0.8 0  6 0.8 0  6.333333333333333 0.8 0  6.666666666666667 0.8 0  7 0.8 0  7.333333333333333 0.8 0  7.666666666666667 0.8 0  8 0.8 0  8.333333333333334 0.8 0  8.666666666666666 0.8 0  9 0.8 0  9.333333333333334 0.8 0  9.666666666666666 0.8 0  10 0.8 0  0 1 0  0.3333333333333333 1 0  0.6666666666666666 1 0  1 1 0  1.333333333333333 1 0  1.666666666666667 1 0  2 1 0  2.333333333333333 1 0  2.666666666666667 1 0  3 1 0  3.333333333333333 1 0  3.666666666666667 1 0  4 1 0  4.333333333333333 1 0  4.666666666666667 1 0  5 1 0  5.333333333333333 1 0  5.666666666666667 1 0  6 1 0  6.333333333333333 1 0  6.666666666666667 1 0  7 1 0  7.333333333333333 1 0  7.666666666666667 1 0  8 1 0  8.333333333333334 1 0  8.666666666666666 1 0  9 1 0  9.333333333333334 1 0  9.666666666666666 1 0  10 1 0  0 1.2 0  0.3333333333333333 1.2 0  0.6666666666666666 1.2 0  1 1.2 0  1.333333333333333 1.2 0  1.666666666666667 1.2 0  2 1.2 0  2.333333333333333 1.2 0  2.666666666666667 1.2 0  3 1.2 0  3.333333333333333 1.2 0  3.666666666666667 1.2 0  4 1.2 0  4.333333333333333 1.2 0  4.666666666666667 1.2 0  5 1.2 0  5.333333333333333 1.2 0  5.666666666666667 1.2 0  6 1.2 0  6.333333333333333 1.2 0  6.666666666666667 1.2 0  7 1.2 0  7.333333333333333 1.2 0  7.666666666666667 1.2 0  8 1.2 0  8.333333333333334 1.2 0  8.666666666666666 1.2 0  9 1.2 0  9.333333333333334 1.2 0  9.666666666666666 1.2 0  10 1.2 0  0 1.4 0  0.3333333333333333 1.4 0  0.6666666666666666 1.4 0  1 1.4 0  1.333333333333333 1.4 0  1.666666666666667 1.4 0  2 1.4 0  2.333333333333333 1.4 0  2.666666666666667 1.4 0  3 1.4 0  3.333333333333333 1.4 0  3.666666666666667 1.4 0  4 1.4 0  4.333333333333333 1.4 0  4.666666666666667 1.4 0  5 1.4 0  5.333333333333333 1.4 0  5.666666666666667 1.4 0  6 1.4 0  6.333333333333333 1.4 0  6.666666666666667 1.4 0  7 1.4 0  7.333333333333333 1.4 0  7.666666666666667 1.4 0  8 1.4 0  8.333333333333334 1.4 0  8.666666666666666 1.4 0  9 1.4 0  9.333333333333334 1.4 0  9.666666666666666 1.4 0  10 1.4 0  0 1.6 0  0.3333333333333333 1.6 0  0.6666666666666666 1.6 0  1 1.6 0  1.333333333333333 1.6 0  1.666666666666667 1.6 0  2 1.6 0  2.333333333333333 1.6 0  2.666666666666667 1.6 0  3 1.6 0  3.333333333333333 1.6 0  3.666666666666667 1.6 0  4 1.6 0  4.333333333333333 1.6 0  4.666666666666667 1.6 0  5 1.6 0  5.333333333333333 1.6 0  5.666666666666667 1.6 0  6 1.6 0  6.333333333333333 1.6 0  6.666666666666667 1.6 0  7 1.6 0  7.333333333333333 1.6 0  7.666666666666667 1.6 0  8 1.6 0  8.333333333333334 1.6 0  8.666666666666666 1.6 0  9 1.6 0  9.333333333333334 1.6 0  9.666666666666666 1.6 0  10 1.6 0  0 1.8 0  0.3333333333333333 1.8 0  0.6666666666666666 1.8 0  1 1.8 0  1.333333333333333 1.8 0  1.666666666666667 1.8 0  2 1.8 0  2.333333333333333 1.8 0  2.666666666666667 1.8 0  3 1.8 0  3.333333333333333 1.8 0  3.666666666666667 1.8 0  4 1.8 0  4.333333333333333 1.8 0  4.666666666666667 1.8 0  5 1.8 0  5.333333333333333 1.8 0  5.666666666666667 1.8 0  6 1.8 0  6.333333333333333 1.8 0  6.666666666666667 1.8 0  7 1.8 0  7.333333333333333 1.8 0  7.666666666666667 1.8 0  8 1.8 0  8.333333333333334 1.8 0  8.666666666666666 1.8 0  9 1.8 0  9.333333333333334 1.8 0  9.666666666666666 1.8 0  10 1.8 0  0 2 0  0.3333333333333333 2 0  0.6666666666666666 2 0  1 2 0  1.333333333333333 2 0  1.666666666666667 2 0  2 2 0  2.333333333333333 2 0  2.666666666666667 2 0  3 2 0  3.333333333333333 2 0  3.666666666666667 2 0  4 2 0  4.333333333333333 2 0  4.666666666666667 2 0  5 2 0  5.333333333333333 2 0  5.666666666666667 2 0  6 2 0  6.333333333333333 2 0  6.666666666666667 2 0  7 2 0  7.333333333333333 2 0  7.666666666666667 2 0  8 2 0  8.333333333333334 2 0  8.666666666666666 2 0  9 2 0  9.333333333333334 2 0  9.666666666666666 2 0  10 2 0  0 2.2 0  0.3333333333333333 2.2 0  0.6666666666666666 2.2 0  1 2.2 0  1.333333333333333 2.2 0  1.666666666666667 2.2 0  2 2.2 0  2.333333333333333 2.2 0  2.666666666666667 2.2 0  3 2.2 0  3.333333333333333 2.2 0  3.666666666666667 2.2 0  4 2.2 0  4.333333333333333 2.2 0  4.666666666666667 2.2 0  5 2.2 0  5.333333333333333 2.2 0  5.666666666666667 2.2 0  6 2.2 0  6.333333333333333 2.2 0  6.666666666666667 2.2 0  7 2.2 0  7.333333333333333 2.2 0  7.666666666666667 2.2 0  8 2.2 0  8.333333333333334 2.2 0  8.666666666666666 2.2 0  9 2.2 0  9.333333333333334 2.2 0  9.666666666666666 2.2 0  10 2.2 0  0 2.4 0  0.3333333333333333 2.4 0  0.6666666666666666 2.4 0  1 2.4 0  1.333333333333333 2.4 0  1.666666666666667 2.4 0  2 2.4 0  2.333333333333333 2.4 0  2.666666666666667 2.4 0  3 2.4 0  3.333333333333333 2.4 0  3.666666666666667 2.4 0  4 2.4 0  4.333333333333333 2.4 0  4.666666666666667 2.4 0  5 2.4 0  5.333333333333333 2.4 0  5.666666666666667 2.4 0  6 2.4 0  6.333333333333333 2.4 0  6.666666666666667 2.4 0  7 2.4 0  7.333333333333333 2.4 0  7.666666666666667 2.4 0  8 2.4 0  8.333333333333334 2.4 0  8.666666666666666 2.4 0  9 2.4 0  9.333333333333334 2.4 0  9.666666666666666 2.4 0  10 2.4 0  0 2.6 0  0.3333333333333333 2.6 0  0.6666666666666666 2.6 0  1 2.6 0  1.333333333333333 2.6 0  1.666666666666667 2.6 0  2 2.6 0  2.333333333333333 2.6 0  2.666666666666667 2.6 0  3 2.6 0  3.333333333333333 2.6 0  3.666666666666667 2.6 0  4 2.6 0  4.333333333333333 2.6 0  4.666666666666667 2.6 0  5 2.6 0  5.333333333333333 2.6 0  5.666666666666667 2.6 0  6 2.6 0  6.333333333333333 2.6 0  6.666666666666667 2.6 0  7 2.6 0  7.333333333333333 2.6 0  7.666666666666667 2.6 0  8 2.6 0  8.333333333333334 2.6 0  8.666666666666666 2.6 0  9 2.6 0  9.333333333333334 2.6 0  9.666666666666666 2.6 0  10 2.6 0  0 2.8 0  0.3333333333333333 2.8 0  0.6666666666666666 2.8 0  1 2.8 0  1.333333333333333 2.8 0  1.666666666666667 2.8 0  2 2.8 0  2.333333333333333 2.8 0  2.666666666666667 2.8 0  3 2.8 0  3.333333333333333 2.8 0  3.666666666666667 2.8 0  4 2.8 0  4.333333333333333 2.8 0  4.666666666666667 2.8 0  5 2.8 0  5.333333333333333 2.8 0  5.666666666666667 2.8 0  6 2.8 0  6.333333333333333 2.8 0  6.666666666666667 2.8 0  7 2.8 0  7.333333333333333 2.8 0  7.666666666666667 2.8 0  8 2.8 0  8.333333333333334 2.8 0  8.666666666666666 2.8 0  9 2.8 0  9.333333333333334 2.8 0  9.666666666666666 2.8 0  10 2.8 0  0 3 0  0.3333333333333333 3 0  0.6666666666666666 3 0  1 3 0  1.333333333333333 3 0  1.666666666666667 3 0  2 3 0  2.333333333333333 3 0  2.666666666666667 3 0  3 3 0  3.333333333333333 3 0  3.666666666666667 3 0  4 3 0  4.333333333333333 3 0  4.666666666666667 3 0  5 3 0  5.333333333333333 3 0  5.666666666666667 3 0  6 3 0  6.333333333333333 3 0  6.666666666666667 3 0  7 3 0  7.333333333333333 3 0  7.666666666666667 3 0  8 3 0  8.333333333333334 3 0  8.666666666666666 3 0  9 3 0  9.333333333333334 3 0  9.666666666666666 3 0  10 3 0  0 0 0.1  0.3333333333333333 0 0.1  0.6666666666666666 0 0.1  1 0 0.1  1.333333333333333 0 0.1  1.666666666666667 0 0.1  2 0 0.1  2.333333333333333 0 0.1  2.666666666666667 0 0.1  3 0 0.1  3.333333333333333 0 0.1  3.666666666666667 0 0.1  4 0 0.1  4.333333333333333 0 0.1  4.666666666666667 0 0.1  5 0 0.1  5.333333333333333 0 0.1  5.666666666666667 0 0.1  6 0 0.1  6.333333333333333 0 0.1  6.666
[...]
<PointData  Vectors="f_7-0"> 
<DataArray  type="Float64"  Name="f_7-0"  NumberOfComponents="3" format="ascii">0.0000000000000000e+00 0.0000000000000000e+00 0.0000000000000000e+00  3.2286144902647633e-02 3.0323558419684510e-02 3.9799045244744173e-03  5.7440978877730246e-02 5.1604832562962479e-02 3.7057830061221850e-03  7.9925681112941543e-02 6.8460334262741632e-02 3.4768729956412879e-03  1.0184813879441956e-01 8.2697028667960359e-02 3.3888612601823231e-03  1.2402873609174932e-01 9.4508240969931420e-02 3.3990516863966714e-03  1.4720689994522135e-01 1.0374651117566486e-01 3.4773858604520156e-03  1.7222038380901009e-01 1.1000121631617016e-01 3.6411386495216616e-03  1.9978440921078577e-01 1.1309805042498172e-01 3.8213935673972262e-03  2.2988005056985888e-01 1.1361936420521015e-01 3.9339963974362908e-03  2.6170897866808912e-01 1.1272726942889555e-01 3.9687846121027204e-03  2.9430499902483254e-01 1.1148002597961769e-01 3.9642857495468808e-03  3.2701352658691096e-01 1.1045063723679585e-01 3.9503605684325311e-03  3.5953556977324946e-01 1.0981235117748979e-01 3.9369582822359628e-03  3.9178834458707412e-01 1.0954206421535445e-01 3.9257733972336813e-03  4.2379246805423876e-01 1.0954544743019551e-01 3.9173489034523010e-03  4.5561218951772103e-01 1.0971381839807283e-01 3.9120858164484454e-03  4.8732204293029641e-01 1.0995220224715498e-01 3.9097915684512367e-03  5.1898634053489578e-01 1.1019313631793587e-01 3.9096680007352025e-03  5.5064925215792349e-01 1.1039916898376581e-01 3.9107184320973740e-03  5.8233405068014665e-01 1.1055722710518934e-01 3.9121320354817760e-03  6.1404793466581808e-01 1.1066966222725950e-01 3.9134258728840045e-03  6.4578842662270819e-01 1.1074599328445586e-01 3.9143980314403143e-03  6.7754879972699622e-01 1.1079717999852466e-01 3.9150220456937610e-03  7.0932167340501873e-01 1.1083251105088648e-01 3.9153574579516102e-03  7.4110091003724721e-01 1.1085844441613331e-01 3.9154922155175964e-03  7.7288228416845628e-01 1.1087864813068236e-01 3.9155099823551063e-03  8.0466341158397225e-01 1.1089463710592369e-01 3.9154753264704868e-03  8.3644333365758727e-01 1.1090658770633453e-01 3.9154302673337100e-03  8.6822202856705877e-01 1.1091407896056765e-01 3.9153935476057824e-03  9.0000000000000013e-01 1.1091664691948282e-01 3.9153764050030345e-03  0.0000000000000000e+00 0.0000000000000000e+00 0.0000000000000000e+00  1.8765167018961450e-02 1.6381511939308018e-02 5.0724176929898496e-03  4.7470496798881108e-02 4.0757443869589731e-02 4.1007339442774978e-03  7.1602784275073703e-02 5.8497396475199699e-02 3.6435519327640627e-03  9.4869696801151607e-02 7.2883595263430759e-02 3.5860921622251130e-03  1.1840062757242083e-01 8.4470447329336118e-02 3.5851827408313807e-03  1.4313232115641750e-01 9.3079354807000886e-02 3.6778834616792017e-03  1.6990976475166852e-01 9.8299611216761729e-02 3.7988220129579853e-03  1.9907760271379671e-01 1.0022317828521854e-01 3.8832698450271172e-03  2.3018249419866024e-01 9.9842491236082104e-02 3.9195635676530028e-03  2.6236760326178354e-01 9.8497534284796309e-02 3.9323804363807641e-03  2.9491594422822826e-01 9.7142907850277849e-02 3.9361636755146506e-03  3.2742837778439249e-01 9.6178480302740607e-02 3.9338894460672407e-03  3.5974365912381806e-01 9.5661707495446557e-02 3.9285096783652287e-03  3.9183198312446532e-01 9.5511840849914792e-02 3.9228619557062023e-03  4.2372867565767702e-01 9.5609009973312606e-02 3.9183853652069757e-03  4.5549494307200411e-01 9.5836610636636385e-02 3.9155005759946414e-03  4.8719272674404163e-01 9.6102618476156199e-02 3.9140793619498468e-03  5.1887029237453475e-01 9.6348274025600741e-02 3.9137393386980560e-03  5.5055741980256268e-01 9.6546038161757081e-02 3.9140466749753551e-03  5.8226743706819795e-01 9.6690938015431882e-02 3.9146353716177466e-03  6.1400233152950801e-01 9.6790505304882646e-02 3.9152558578147449e-03  6.4575799070597129e-01 9.6856768305630239e-02 3.9157746682670358e-03  6.7752816040894848e-01 9.6901325043435738e-02 3.9161467739166483e-03  7.0930685431198492e-01 9.6933049347726882e-02 3.9163804086649670e-03  7.4108948128332719e-01 9.6957555711397941e-02 3.9165075631740444e-03  7.7287310133285947e-01 9.6977636795803721e-02 3.9165646126975914e-03  8.0465619699587787e-01 9.6994101587051310e-02 3.9165826159451456e-03  8.3643826069606619e-01 9.7006648681729923e-02 3.9165828066953165e-03  8.6821939231604373e-01 9.7014581097073768e-02 3.9165783283861572e-03  9.0000000000000013e-01 9.7017295024808464e-02 3.9165775207333289e-03  0.0000000000000000e+00 0.0000000000000000e+00 0.0000000000000000e+00  1.0534464655830206e-02 7.0629057120333762e-03 6.3303689388040383e-03  3.7218182376173865e-02 2.9183387328241002e-02 4.4916534349950217e-03  6.3247728311844748e-02 4.7989412471131740e-02 3.9862417257458720e-03  8.7939095875244622e-02 6.2569972591839884e-02 3.8033872003091617e-03  1.1289315818379915e-01 7.3848207668498186e-02 3.8124415860734595e-03  1.3928143359268777e-01 8.1679750871368764e-02 3.8874294324095730e-03  1.6788507114832246e-01 8.5790464747349179e-02 3.9132022842701952e-03  1.9860303385381423e-01 8.6702992752394265e-02 3.8765923222549938e-03  2.3060068809093207e-01 8.5735151571051271e-02 3.8518357990626737e-03  2.6305168174098381e-01 8.4199635938606202e-02 3.8682852352616621e-03  2.9551057855312596e-01 8.2866545679101011e-02 3.8963660534154288e-03  3.2781439662062334e-01 8.2001525752329718e-02 3.9140246583004440e-03  3.5992318118187566e-01 8.1598182288511706e-02 3.9212851171816325e-03  3.9185302330660765e-01 8.1545658525480166e-02 3.9234127970962634e-03  4.2365034039011362e-01 8.1710670362054663e-02 3.9233284595266184e-03  4.5537074817087136e-01 8.1975011975287934e-02 3.9221256409808667e-03  4.8706207113030059e-01 8.2252832971317635e-02 3.9204222255356559e-03  5.1875612378169667e-01 8.2494601954017810e-02 3.9187748437812938e-03  5.5046870067905973e-01 8.2681261561340341e-02 3.9175655075767519e-03  5.8220389903251446e-01 8.2813752994415527e-02 3.9169020735554576e-03  6.1395915030150028e-01 8.2902818073159731e-02 3.9166888607811284e-03  6.4572916144228654e-01 8.2961654656369913e-02 3.9167595041527132e-03  6.7750840553636738e-01 8.3001785950604604e-02 3.9169653350130118e-03  7.0929239539181888e-01 8.3031416405211139e-02 3.9172042720982715e-03  7.4107809586747075e-01 8.3055340802308850e-02 3.9174183588584566e-03  7.7286381249396929e-01 8.3075635942573167e-02 3.9175826184481219e-03  8.0464883928671960e-01 8.3092601938986571e-02 3.9176937699622804e-03  8.3643307085855922e-01 8.3105636059658067e-02 3.9177598338632222e-03  8.6821669488199038e-01 8.3113894713496672e-02 3.9177943232600347e-03  9.0000000000000013e-01 8.3116724874972764e-02 3.9178048243146092e-03  0.0000000000000000e+00 0.0000000000000000e+00 0.0000000000000000e+00  9.0592649785389712e-03 4.7072865892347771e-03 5.8704974115006397e-03  2.7587790328947797e-02 1.7471617488393865e-02 5.9840427139785596e-03  5.4905427885481944e-02 3.7048437294881970e-02 4.3430246612493582e-03  8.1078912176928364e-02 5.1777999114497875e-02 4.1339373633575089e-03  1.0755424386358783e-01 6.2633637247695328e-02 4.0881542295717332e-03  1.3576445144298468e-01 6.9489632523254380e-02 4.0749601660007087e-03  1.6624817463009048e-01 7.2439793670404304e-02 3.9519195797461529e-03  1.9837445476292709e-01 7.2558082393521656e-02 3.8064488719200176e-03  2.3108180919230917e-01 7.1326846064672156e-02 3.7577601788927281e-03  2.6370430555605723e-01 6.9841801911628199e-02 3.7948258151271272e-03  2.9605569194419357e-01 6.8647149002518074e-02 3.8505763996121447e-03  3.2815805375451351e-01 6.7915945820296864e-02 3.8913620996899149e-03  3.6007078204877918e-01 6.7620062186577401e-02 3.9149005810181995e-03  3.9185276616370029e-01 6.7642743645215983e-02 3.9268358938398190e-03  4.2356084764004370e-01 6.7849876650481269e-02 3.9313688075192452e-03  4.5524353973376391e-01 6.8128610702941295e-02 3.9310565348209562e-03  4.8693348327330127e-01 6.8402651042159618e-02 3.9280586962193989e-03  5.1864615919364687e-01 6.8632127837223111e-02 3.9242990769050232e-03  5.5038429780438491e-01 6.8804951943449572e-02 3.9210733081042190e-03  5.8214379018052320e-01 6.8925798781353839e-02 3.9189108452996743e-03  6.1391824376968862e-01 6.9006697267592648e-02 3.9177900633988443e-03  6.4570157865198718e-01 6.9060711184989673e-02 3.9174417401095299e-03  6.7748914924908710e-01 6.9098590617594796e-02 3.9175579447533609e-03  7.0927798214575899e-01 6.9127619109558530e-02 3.9178866377489359e-03  7.4106654253243931e-01 6.9151794575085121e-02 3.9182573062721913e-03  7.7285430150733359e-01 6.9172635416796149e-02 3.9185756924591955e-03  8.0464129020000574e-01 6.9190127215107047e-02 3.9188061790999869e-03  8.3642775219280985e-01 6.9203539571470643e-02 3.9189501482200899e-03  8.6821393304589822e-01 6.9212012002133269e-02 3.9190260632185423e-03  9.0000000000000013e-01 6.9214912379826854e-02 3.9190477898823264e-03  0.0000000000000000e+00 0.0000000000000000e+00 0.0000000000000000e+00  8.7845004648059426e-03 3.6823850855055161e-03 5.3147468186374152e-03  2.2392101628773687e-02 1.0096667541174532e-02 6.5785327153104521e-03  4.6768580390179400e-02 2.5773978766186187e-02 5.1737377665239965e-03  7.4366978297551595e-02 4.0583029411970735e-02 4.5824619022181972e-03  1.0251316822056503e-01 5.0773880270787893e-02 4.3958063443827440e-03  1.3274095029631633e-01 5.6415272450301597e-02 4.2015935041002329e-03  1.6505846004228469e-01 5.8254423109190802e-02 3.9076936251961963e-03  1.9834116399601376e-01 5.7876037501443309e-02 3.7029311143460227e-03  2.3154484533340666e-01 5.6681728829611269e-02 3.6660431126888243e-03  2.6426362088862448e-01 5.5435740786489718e-02 3.7261820710367943e-03  2.9651495337485501e-01 5.4474245139008212e-02 3.8049052743147700e-03  3.2844233375304160e-01 5.3911251881358341e-02 3.8682643616238946e-03  3.6018171661630782e-01 5.3720812376640621e-02 3.9095828110715294e-03  3.9183325397950819e-01 5.3798864729107533e-02 3.9321676818693200e-03  4.2346527141104884e-01 5.4023680298002114e-02 3.9410201128109237e-03  4.5511887257159828e-01 5.4295661483229452e-02 3.9408331493627664e-03  4.8681146872518549e-01 5.4551484694846192e-02 3.9359100384494458e-03  5.1854328532394633e-01 5.4761072811708007e-02 3.9297040447202891e-03  5.5030559679659563e-01 5.4917680580854736e-02 3.9243406352496178e-03  5.8208742613722719e-01 5.5027661421306842e-02 3.9206659488699898e-03  6.1387932332520445e-01 5.5102589592357074e-02 3.9186742121075733e-03  6.4567471590359116e-01 5.5154215179988399e-02 3.9179644519374149e-03  6.7746986120695885e-01 5.5191873512023731e-02 3.9180504065398957e-03  7.0926319749598399e-01 5.5221692760587568e-02 3.9185170869471377e-03  7.4105455035233336e-01 5.5246895880346460e-02 3.9190758510970281e-03  7.7284442596272462e-01 5.5268591395915258e-02 3.9195642595564765e-03  8.0463349571496101e-01 5.5286632708801763e-02 3.9199192171671176e-03  8.3642229584646510e-01 5.5300324200217799e-02 3.9201403212780527e-03  8.6821111185819899e-01 5.5308905846241270e-02 3.9202548950752559e-03  9.0000000000000013e-01 5.5311832508994414e-02 3.9202883676064445e-03  0.0000000000000000e+00 0.0000000000000000e+00 0.0000000000000000e+00  8.4376244197864117e-03 2.6191788793436420e-03 5.1898874758108280e-03  2.0782721326097379e-02 6.4600138272801200e-03 6.3210977442967617e-03  4.0251014213708441e-02 1.5700056722789339e-02 6.2242742308127137e-03  6.7991643072376096e-02 2.9078865636639587e-02 5.1689187049472505e-03  9.8006510853050163e-02 3.8161963146360826e-02 4.7136937241737346e-03  1.3037161081074231e-01 4.2385046858903812e-02 4.2307047048053990e-03  1.6430265256353621e-01 4.3317837916175057e-02 3.8020300163957694e-03  1.9841134814728867e-01 4.2790577671348584e-02 3.6008980961224832e-03  2.3191506676291254e-01 4.1872579551486461e-02 3.5941813414748095e-03  2.6468174093501212e-01 4.0992783512658212e-02 3.6710759360984672e-03  2.9685597210910669e-01 4.0334505923641975e-02 3.7657022400290900e-03  3.2864822109596714e-01 3.9971984235695215e-02 3.8479413713440780e-03  3.6024911658101694e-01 3.9888893641229474e-02 3.9056719342252639e-03  3.9179584979237525e-01 4.0005957902791496e-02 3.9381641464215390e-03  4.2336878578000803e-01 4.0226728887799622e-02 3.9505634174200653e-03  4.5500246344961243e-01 4.0473314507290338e-02 3.9499528789918529e-03  4.8670056588913579e-01 4.0698570509740212e-02 3.9429654472944616e-03  5.1845037050961018e-01 4.0881976248682499e-02 3.9344577220092594e-03  5.5023398276122204e-01 4.1020495504905143e-02 3.9271849792553663e-03  5.8203514143673096e-01 4.1120369108902280e-02 3.9221951994673218e-03  6.1384211819331702e-01 4.1191266854213537e-02 3.9194675956145345e-03  6.4564805372538614e-01 4.1242638482183402e-02 3.9184756474852098e-03  6.7745000925887533e-01 4.1281855512918846e-02 3.9185688977890227e-03  7.0924761901623723e-01 4.1313686346213643e-02 3.9191827951454237e-03  7.4104184293644670e-01 4.1340598870176840e-02 3.9199222632377686e-03  7.7283403898553538e-01 4.1363423031781470e-02 3.9205662956814337e-03  8.0462539834529367e-01 4.1382040189912629e-02 3.9210309711116918e-03  8.3641669143108421e-01 4.1395930116662809e-02 3.9213174476136889e-03  8.6820823597321140e-01 4.1404532871361609e-02 3.9214637937402914e-03  9.0000000000000013e-01 4.1407449295895793e-02 3.9215072421793229e-03  0.0000000000000000e+00 0.0000000000000000e+00 0.0000000000000000e+00  8.2159892919729093e-03 1.5968228381996433e-03 5.0937711501400900e-03  2.0198747280288920e-02 3.9350456553596223e-03 6.0640861863396501e-03  3.6715489823700889e-02 8.5290606249694735e-03 6.6880735692136269e-03  6.2536850303123392e-02 1.7547419318705803e-02 6.0217706122044270e-03  9.4373091082406435e-02 2.4696988745516096e-02 4.9615296439465360e-03  1.2875054461672711e-01 2.7423462038871960e-02 4.1663329956808728e-03  1.6388649336325625e-01 2.7801564977981221e-02 3.6811308144507650e-03  1.9848058368753277e-01 2.7446866807858992e-02 3.5274760842084023e-03  2.3213809989999598e-01 2.6961424098004630e-02 3.5479913973328414e-03  2.6492764034741384e-01 2.6522407858843879e-02 3.6335892526450993e-03  2.9705353419649716e-01 2.6214592447798429e-02 3.7378377981401784e-03  3.2875775731594925e-01 2.6079132984617528e-02 3.8333245344027225e-03  3.6026537404289893e-01 2.6107545758438634e-02 3.9034571866688695e-03  3.9174131275983853e-01 2.6251690330121213e-02 3.9434965473510164e-03  4.2327608554547713e-01 2.6451271497655644e-02 3.9583391579158383e-03  4.5489944457610754e-01 2.6657880013831920e-02 3.9571327272207952e-03  4.8660472786706094e-01 2.6843196883443183e-02 3.9484556882668732e-03  5.1836986847621158e-01 2.6995796832658833e-02 3.9381955048441398e-03  5.5017063968134228e-01 2.7114938997439737e-02 3.9295063935880581e-03  5.8198722549993664e-01 2.7205378290149084e-02 3.9235510915352056e-03  6.1380639241630930e-01 2.7273805030428432e-02 3.9202906824887225e-03  6.4562113369360608e-01 2.7326626480009733e-02 3.9191048599199890e-03  6.7742912037765368e-01 2.7368825403694983e-02 3.9192186231904362e-03  7.0923086971468607e-01 2.7403648580609733e-02 3.9199529772918238e-03  7.4102817278590860e-01 2.7432824546528838e-02 3.9208323698807753e-03  7.7282300803348702e-01 2.7457009009779584e-02 3.9215931218730092e-03  8.0461694500853942e-01 2.7476237402878644e-02 3.9221376696407882e-03  8.3641092839817721e-01 2.7490274039947884e-02 3.9224703668773791e-03  8.6820530824997677e-01 2.7498836219671450e-02 3.9226386811542467e-03  9.0000000000000013e-01 2.7501716885677777e-02 3.9226891094196973e-03  0.0000000000000000e+00 0.0000000000000000e+00 0.0000000000000000e+00  8.1111575730935942e-03 6.1346442301039752e-04 5.0174045473913879e-03  1.9829507217510745e-02 1.6220651560723302e-03 5.9721706596716296e-03  3.5370601480072289e-02 3.4547261687048348e-03 6.7218694692640010e-03  5.9217705237982504e-02 6.7498807003424045e-03 6.7242274667295510e-03  9.2000678672850625e-02 1.0398203042144998e-02 5.1257331684167132e-03  1.2786417588882942e-01 1.1716062627978722e-02 4.0587878469335722e-03  1.6366973366777901e-01 1.1933003222049626e-02 3.5959585327114702e-03  1.9846536908295470e-01 1.1969723014147124e-02 3.4933154388932411e-03  2.3218296677590722e-01 1.1995271968082784e-02 3.5267200206445439e-03  2.6498401233276675e-01 1.2034078755669229e-02 3.6158199693473712e-03  2.9709082635312789e-01 1.2103388291273812e-02 3.7246845420021426e-03  3.2875722176405386e-01 1.2211962349871187e-02 3.8267771210376261e-03  3.6022406325728012e-01 1.2355556517705741e-02 3.9032344097851019e-03  3.9166997456056474e-01 1.2519763595201629e-02 3.9470696261800350e-03  4.2319071498917060e-01 1.2687460785667725e-02 3.9630478482193090e-03  4.5481363323450852e-01 1.2845060475319386e-02 3.9614539433358124e-03  4.8652681937078462e-01 1.2984769340882664e-02 3.9518732303326773e-03  5.1830353178835398e-01 1.3103856980198886e-02 3.9406912629739001e-03  5.5011640923538263e-01 1.3202954893730653e-02 3.9312522157955452e-03  5.8194387651229917e-01 1.3284493253523454e-02 3.9247811786994498e-03  6.1377195889564540e-01 1.3351530274239345e-02 3.9212358766781627e-03  6.4559360242753416e-01 1.3406967906139102e-02 3.9199485328686281e-03  6.7740683040529803e-01 1.3453126819833419e-02 3.9200763392203243e-03  7.0921265891953988e-01 1.3491625911941510e-02 3.9208769731393783e-03  7.4101334807711094e-01 1.3523464815019688e-02 3.9218309501563783e-03  7.7281122892475329e-01 1.3549193734435250e-02 3.9226521859607741e-03  8.0460809229708319e-01 1.3569083811395108e-02 3.9232366531635546e-03  8.3640499621533781e-01 1.3583254001472032e-02 3.9235917123323950e-03  8.6820232916109985e-01 1.3591748529015369e-02 3.9237702914347687e-03  9.0000000000000013e-01 1.3594581438828680e-02 3.9238240851234719e-03  0.0000000000000000e+00 0.0000000000000000e+00 0.0000000000000000e+00  8.1066001047334982e-03 -3.5575152967142273e-04 4.9748529932643658e-03  1.9592285413429042e-02 -5.2222290515015906e-04 5.9713774564138268e-03  3.5177367176169247e-02 -1.1424708434853970e-03 6.7163541498245442e-03  5.8814560169172171e-02 -3.2100054142661493e-03 6.8086414473917042e-03  9.1333455063820485e-02 -4.3546285362158340e-03 5.2081483792078961e-03  1.2761503436788338e-01 -4.3804227309378859e-03 3.9854854107108650e-03  1.6353115745791283e-01 -4.0594198170340063e-03 3.5798784490041267e-03  1.9832157274452869e-01 -3.5463499245859845e-03 3.4949351489228916e-03  2.3203703892750643e-01 -2.9889592776993308e-03 3.5291236694820812e-03  2.6484333311541258e-01 -2.4621010395640256e-03 3.6188377510318562e-03  2.9695980376847159e-01 -2.0082039493283144e-03 3.7278359241353872e-03  3.2863965785606025e-01 -1.6509475566882767e-03 3.8294854214633439e-03  3.6012177084684288e-01 -1.3912208476518687e-03 3.9050977948947032e-03  3.9158192966225613e-01 -1.2088665742544576e-03 3.9482559184794725e-03  4.2311445176889501e-01 -1.0759416268436542e-03 3.9640086637406308e-03  4.5474693938269090e-01 -9.6979095026323680e-04 3.9624664610689560e-03  4.8646826416645317e-01 -8.7720036135884125e-04 3.9529797145959333e-03  5.1825222844674890e-01 -7.9227782074965799e-04 3.9418420128661709e-03  5.5007170041985176e-01 -7.1325133781857848e-04 3.9324034158386588e-03  5.8190517081411020e-01 -6.4025299260555830e-04 3.9259164978910953e-03  6.1373869007306259e-01 -5.7406512834722327e-04 3.9223566665231259e-03  6.4556524431727114e-01 -5.1545368586393186e-04 3.9210610135468537e-03  6.7738292095569508e-01 -4.6486178902350659e-04 3.9211845955476055e-03  7.0919281207978258e-01 -4.2233878019820007e-04 3.9219818342373204e-03  7.4099725160844976e-01 -3.8760935764582758e-04 3.9229316817472170e-03  7.7279863519062331e-01 -3.6020210790001656e-04 3.9237481354902409e-03  8.0459880949511098e-01 -3.3957999626363242e-04 3.9243277369202479e-03  8.3639888416864139e-01 -3.2524395449057899e-04 3.9246790409921423e-03  8.6819929629450643e-01 -3.1680426135119992e-04 3.9248553180880217e-03  9.0000000000000013e-01 -3.1401578986556933e-04 3.9249086530691738e-03  0.0000000000000000e+00 0.0000000000000000e+00 0.0000000000000000e+00  8.1552059612061169e-03 -1.2825365884460002e-03 4.9466932259679677e-03  1.9483233517151758e-02 -2.5857283987573568e-03 6.0955450044244226e-03  3.6188970885868484e-02 -6.3731634049274096e-03 6.6561051609839638e-03  6.1082717942835436e-02 -1.3257652244017570e-02 