<?xml version="1.0"?>
<VTKFile type="UnstructuredGrid"  version="0.1"  >
<UnstructuredGrid>
<Piece  NumberOfPoints="882" NumberOfCells="3600">
<Points>
<DataArray  type="Float64"  NumberOfComponents="3"  format="ascii">0 0 0  0.5 0 0  1 0 0  1.5 0 0  2 0 0  2.5 0 0  3 0 0  3.5 0 0  4 0 0  4.5 0 0  5 0 0  5.5 0 0  6 0 0  6.5 0 0  7 0 0  7.5 0 0  8 0 0  8.5 0 0  9 0 0  9.5 0 0  10 0 0  0 0.5 0  0.5 0.5 0  1 0.5 0  1.5 0.5 0  2 0.5 0  2.5 0.5 0  3 0.5 0  3.5 0.5 0  4 0.5 0  4.5 0.5 0  5 0.5 0  5.5 0.5 0  6 0.5 0  6.5 0.5 0  7 0.5 0  7.5 0.5 0  8 0.5 0  8.5 0.5 0  9 0.5 0  9.5 0.5 0  10 0.5 0  0 1 0  0.5 1 0  1 1 0  1.5 1 0  2 1 0  2.5 1 0  3 1 0  3.5 1 0  4 1 0  4.5 1 0  5 1 0  5.5 1 0  6 1 0  6.5 1 0  7 1 0  7.5 1 0  8 1 0  8.5 1 0  9 1 0  9.5 1 0  10 1 0  0 1.5 0  0.5 1.5 0  1 1.5 0  1.5 1.5 0  2 1.5 0  2.5 1.5 0  3 1.5 0  3.5 1.5 0  4 1.5 0  4.5 1.5 0  5 1.5 0  5.5 1.5 0  6 1.5 0  6.5 1.5 0  7 1.5 0  7.5 1.5 0  8 1.5 0  8.5 1.5 0  9 1.5 0  9.5 1.5 0  10 1.5 0  0 2 0  0.5 2 0  1 2 0  1.5 2 0  2 2 0  2.5 2 0  3 2 0  3.5 2 0  4 2 0  4.5 2 0  5 2 0  5.5 2 0  6 2 0  6.5 2 0  7 2 0  7.5 2 0  8 2 0  8.5 2 0  9 2 0  9.5 2 0  10 2 0  0 2.5 0  0.5 2.5 0  1 2.5 0  1.5 2.5 0  2 2.5 0  2.5 2.5 0  3 2.5 0  3.5 2.5 0  4 2.5 0  4.5 2.5 0  5 2.5 0  5.5 2.5 0  6 2.5 0  6.5 2.5 0  7 2.5 0  7.5 2.5 0  8 2.5 0  8.5 2.5 0  9 2.5 0  9.5 2.5 0  10 2.5 0  0 3 0  0.5 3 0  1 3 0  1.5 3 0  2 3 0  2.5 3 0  3 3 0  3.5 3 0  4 3 0  4.5 3 0  5 3 0  5.5 3 0  6 3 0  6.5 3 0  7 3 0  7.5 3 0  8 3 0  8.5 3 0  9 3 0  9.5 3 0  10 3 0  0 0 0.1  0.5 0 0.1  1 0 0.1  1.5 0 0.1  2 0 0.1  2.5 0 0.1  3 0 0.1  3.5 0 0.1  4 0 0.1  4.5 0 0.1  5 0 0.1  5.5 0 0.1  6 0 0.1  6.5 0 0.1  7 0 0.1  7.5 0 0.1  8 0 0.1  8.5 0 0.1  9 0 0.1  9.5 0 0.1  10 0 0.1  0 0.5 0.1  0.5 0.5 0.1  1 0.5 0.1  1.5 0.5 0.1  2 0.5 0.1  2.5 0.5 0.1  3 0.5 0.1  3.5 0.5 0.1  4 0.5 0.1  4.5 0.5 0.1  5 0.5 0.1  5.5 0.5 0.1  6 0.5 0.1  6.5 0.5 0.1  7 0.5 0.1  7.5 0.5 0.1  8 0.5 0.1  8.5 0.5 0.1  9 0.5 0.1  9.5 0.5 0.1  10 0.5 0.1  0 1 0.1  0.5 1 0.1  1 1 0.1  1.5 1 0.1  2 1 0.1  2.5 1 0.1  3 1 0.1  3.5 1 0.1  4 1 0.1  4.5 1 0.1  5 1 0.1  5.5 1 0.1  6 1 0.1  6.5 1 0.1  7 1 0.1  7.5 1 0.1  8 1 0.1  8.5 1 0.1  9 1 0.1  9.5 1 0.1  10 1 0.1  0 1.5 0.1  0.5 1.5 0.1  1 1.5 0.1  1.5 1.5 0.1  2 1.5 0.1  2.5 1.5 0.1  3 1.5 0.1  3.5 1.5 0.1  4 1.5 0.1  4.5 1.5 0.1  5 1.5 0.1  5.5 1.5 0.1  6 1.5 0.1  6.5 1.5 0.1  7 1.5 0.1  7.5 1.5 0.1  8 1.5 0.1  8.5 1.5 0.1  9 1.5 0.1  9.5 1.5 0.1  10 1.5 0.1  0 2 0.1  0.5 2 0.1  1 2 0.1  1.5 2 0.1  2 2 0.1  2.5 2 0.1  3 2 0.1  3.5 2 0.1  4 2 0.1  4.5 2 0.1  5 2 0.1  5.5 2 0.1  6 2 0.1  6.5 2 0.1  7 2 0.1  7.5 2 0.1  8 2 0.1  8.5 2 0.1  9 2 0.1  9.5 2 0.1  10 2 0.1  0 2.5 0.1  0.5 2.5 0.1  1 2.5 0.1  1.5 2.5 0.1  2 2.5 0.1  2.5 2.5 0.1  3 2.5 0.1  3.5 2.5 0.1  4 2.5 0.1  4.5 2.5 0.1  5 2.5 0.1  5.5 2.5 0.1  6 2.5 0.1  6.5 2.5 0.1  7 2.5 0.1  7.5 2.5 0.1  8 2.5 0.1  8.5 2.5 0.1  9 2.5 0.1  9.5 2.5 0.1  10 2.5 0.1  0 3 0.1  0.5 3 0.1  1 3 0.1  1.5 3 0.1  2 3 0.1  2.5 3 0.1  3 3 0.1  3.5 3 0.1  4 3 0.1  4.5 3 0.1  5 3 0.1  5.5 3 0.1  6 3 0.1  6.5 3 0.1  7 3 0.1  7.5 3 0.1  8 3 0.1  8.5 3 0.1  9 3 0.1  9.5 3 0.1  10 3 0.1  0 0 0.2  0.5 0 0.2  1 0 0.2  1.5 0 0.2  2 0 0.2  2.5 0 0.2  3 0 0.2  3.5 0 0.2  4 0 0.2  4.5 0 0.2  5 0 0.2  5.5 0 0.2  6 0 0.2  6.5 0 0.2  7 0 0.2  7.5 0 0.2  8 0 0.2  8.5 0 0.2  9 0 0.2  9.5 0 0.2  10 0 0.2  0 0.5 0.2  0.5 0.5 0.2  1 0.5 0.2  1.5 0.5 0.2  2 0.5 0.2  2.5 0.5 0.2  3 0.5 0.2  3.5 0.5 0.2  4 0.5 0.2  4.5 0.5 0.2  5 0.5 0.2  5.5 0.5 0.2  6 0.5 0.2  6.5 0.5 0.2  7 0.5 0.2  7.5 0.5 0.2  8 0.5 0.2  8.5 0.5 0.2  9 0.5 0.2  9.5 0.5 0.2  10 0.5 0.2  0 1 0.2  0.5 1 0.2  1 1 0.2  1.5 1 0.2  2 1 0.2  2.5 1 0.2  3 1 0.2  3.5 1 0.2  4 1 0.2  4.5 1 0.2  5 1 0.2  5.5 1 0.2  6 1 0.2  6.5 1 0.2  7 1 0.2  7.5 1 0.2  8 1 0.2  8.5 1 0.2  9 1 0.2  9.5 1 0.2  10 1 0.2  0 1.5 0.2  0.5 1.5 0.2  1 1.5 0.2  1.5 1.5 0.2  2 1.5 0.2  2.5 1.5 0.2  3 1.5 0.2  3.5 1.5 0.2  4 1.5 0.2  4.5 1.5 0.2  5 1.5 0.2  5.5 1.5 0.2  6 1.5 0.2  6.5 1.5 0.2  7 1.5 0.2  7.5 1.5 0.2  8 1.5 0.2  8.5 1.5 0.2  9 1.5 0.2  9.5 1.5 0.2  10 1.5 0.2  0 2 0.2  0.5 2 0.2  1 2 0.2  1.5 2 0.2  2 2 0.2  2.5 2 0.2  3 2 0.2  3.5 2 0.2  4 2 0.2  4.5 2 0.2  5 2 0.2  5.5 2 0.2  6 2 0.2  6.5 2 0.2  7 2 0.2  7.5 2 0.2  8 2 0.2  8.5 2 0.2  9 2 0.2  9.5 2 0.2  10 2 0.2  0 2.5 0.2  0.5 2.5 0.2  1 2.5 0.2  1.5 2.5 0.2  2 2.5 0.2  2.5 2.5 0.2  3 2.5 0.2  3.5 2.5 0.2  4 2.5 0.2  4.5 2.5 0.2  5 2.5 0.2  5.5 2.5 0.2  6 2.5 0.2  6.5 2.5 0.2  7 2.5 0.2  7.5 2.5 0.2  8 2.5 0.2  8.5 2.5 0.2  9 2.5 0.2  9.5 2.5 0.2  10 2.5 0.2  0 3 0.2  0.5 3 0.2  1 3 0.2  1.5 3 0.2  2 3 0.2  2.5 3 0.2  3 3 0.2  3.5 3 0.2  4 3 0.2  4.5 3 0.2  5 3 0.2  5.5 3 0.2  6 3 0.2  6.5 3 0.2  7 3 0.2  7.5 3 0.2  8 3 0.2  8.5 3 0.2  9 3 0.2  9.5 3 0.2  10 3 0.2  0 0 0.3  0.5 0 0.3  1 0 0.3  1.5 0 0.3  2 0 0.3  2.5 0 0.3  3 0 0.3  3.5 0 0.3  4 0 0.3  4.5 0 0.3  5 0 0.3  5.5 0 0.3  6 0 0.3  6.5 0 0.3  7 0 0.3  7.5 0 0.3  8 0 0.3  8.5 0 0.3  9 0 0.3  9.5 0 0.3  10 0 0.3  0 0.5 0.3  0.5 0.5 0.3  1 0.5 0.3  1.5 0.5 0.3  2 0.5 0.3  2.5 0.5 0.3  3 0.5 0.3  3.5 0.5 0.3  4 0.5 0.3  4.5 0.5 0.3  5 0.5 0.3  5.5 0.5 0.3  6 0.5 0.3  6.5 0.5 0.3  7 0.5 0.3  7.5 0.5 0.3  8 0.5 0.3  8.5 0.5 0.3  9 0.5 0.3  9.5 0.5 0.3  10 0.5 0.3  0 1 0.3  0.5 1 0.3  1 1 0.3  1.5 1 0.3  2 1 0.3  2.5 1 0.3  3 1 0.3  3.5 1 0.3  4 1 0.3  4.5 1 0.3  5 1 0.3  5.5 1 0.3  6 1 0.3  6.5 1 0.3  7 1 0.3  7.5 1 0.3  8 1 0.3  8.5 1 0.3  9 1 0.3  9.5 1 0.3  10 1 0.3  0 1.5 0.3  0.5 1.5 0.3  1 1.5 0.3  1.5 1.5 0.3  2 1.5 0.3  2.5 1.5 0.3  3 1.5 0.3  3.5 1.5 0.3  4 1.5 0.3  4.5 1.5 0.3  5 1.5 0.3  5.5 1.5 0.3  6 1.5 0.3  6.5 1.5 0.3  7 1.5 0.3  7.5 1.5 0.3  8 1.5 0.3  8.5 1.5 0.3  9 1.5 0.3  9.5 1.5 0.3  10 1.5 0.3  0 2 0.3  0.5 2 0.3  1 2 0.3  1.5 2 0.3  2 2 0.3  2.5 2 0.3  3 2 0.3  3.5 2 0.3  4 2 0.3  4.5 2 0.3  5 2 0.3  5.5 2 0.3  6 2 0.3  6.5 2 0.3  7 2 0.3  7.5 2 0.3  8 2 0.3  8.5 2 0.3  9 2 0.3  9.5 2 0.3  10 2 0.3  0 2.5 0.3  0.5 2.5 0.3  1 2.5 0.3  1.5 2.5 0.3  2 2.5 0.3  2.5 2.5 0.3  3 2.5 0.3  3.5 2.5 0.3  4 2.5 0.3  4.5 2.5 0.3  5 2.5 0.3  5.5 2.5 0.3  6 2.5 0.3  6.5 2.5 0.3  7 2.5 0.3  7.5 2.5 0.3  8 2.5 0.3  8.5 2.5 0.3  9 2.5 0.3  9.5 2.5 0.3  10 2.5 0.3  0 3 0.3  0.5 3 0.3  1 3 0.3  1.5 3 0.3  2 3 0.3  2.5 3 0.3  3 3 0.3  3.5 3 0.3  4 3 0.3  4.5 3 0.3  5 3 0.3  5.5 3 0.3  6 3 0.3  6.5 3 0.3  7 3 0.3  7.5 3 0.3  8 3 0.3  8.5 3 0.3  9 3 0.3  9.5 3 0.3  10 3 0.3  0 0 0.4  0.5 0 0.4  1 0 0.4  1.5 0 0.4  2 0 0.4  2.5 0 0.4  3 0 0.4  3.5 0 0.4  4 0 0.4  4.5 0 0.4  5 0 0.4  5.5 0 0.4  6 0 0.4  6.5 0 0.4  7 0 0.4  7.5 0 0.4  8 0 0.4  8.5 0 0.4  9 0 0.4  9.5 0 0.4  10 0 0.4  0 0.5 0.4  0.5 0.5 0.4  1 0.5 0.4  1.5 0.5 0.4  2 0.5 0.4  2.5 0.5 0.4  3 0.5 0.4  3.5 0.5 0.4  4 0.5 0.4  4.5 0.5 0.4  5 0.5 0.4  5.5 0.5 0.4  6 0.5 0.4  6.5 0.5 0.4  7 0.5 0.4  7.5 0.5 0.4  8 0.5 0.4  8.5 0.5 0.4  9 0.5 0.4  9.5 0.5 0.4  10 0.5 0.4  0 1 0.4  0.5 1 0.4  1 1 0.4  1.5 1 0.4  2 1 0.4  2.5 1 0.4  3 1 0.4  3.5 1 0.4  4 1 0.4  4.5 1 0.4  5 1 0.4  5.5 1 0.4  6 1 0.4  6.5 1 0.4  7 1 0.4  7.5 1 0.4  8 1 0.4  8.5 1 0.4  9 1 0.4  9.5 1 0.4  10 1 0.4  0 1.5 0.4  0.5 1.5 0.4  1 1.5 0.4  1.5 1.5 0.4  2 1.5 0.4  2.5 1.5 0.4  3 1.5 0.4  3.5 1.5 0.4  4 1.5 0.4  4.5 1.5 0.4  5 1.5 0.4  5.5 1.5 0.4  6 1.5 0.4  6.5 1.5 0.4  7 1.5 0.4  7.5 1.5 0.4  8 1.5 0.4  8.5 1.5 0.4  9 1.5 0.4  9.5 1.5 0.4  10 1.5 0.4  0 2 0.4  0.5 2 0.4  1 2 0.4  1.5 2 0.4  2 2 0.4  2.5 2 0.4  3 2 0.4  3.5 2 0.4  4 2 0.4  4.5 2 0.4  5 2 0.4  5.5 2 0.4  6 2 0.4  6.5 2 0.4  7 2 0.4  7.5 2 0.4  8 2 0.4  8.5 2 0.4  9 2 0.4  9.5 2 0.4  10 2 0.4  0 2.5 0.4  0.5 2.5 0.4  1 2.5 0.4  1.5 2.5 0.4  2 2.5 0.4  2.5 2.5 0.4  3 2.5 0.4  3.5 2.5 0.4  4 2.5 0.4  4.5 2.5 0.4  5 2.5 0.4  5.5 2.5 0.4  6 2.5 0.4  6.5 2.5 0.4  7 2.5 0.4  7.5 2.5 0.4  8 2.5 0.4  8.5 2.5 0.4  9 2.5 0.4  9.5 2.5 0.4  10 2.5 0.4  0 3 0.4  0.5 3 0.4  1 3 0.4  1.5 3 0.4  2 3 0.4  2.5 3 0.4  3 3 0.4  3.5 3 0.4  4 3 0.4  4.5 3 0.4  5 3 0.4  5.5 3 0.4  6 3 0.4  6.5 3 0.4  7 3 0.4  7.5 3 0.4  8 3 0.4  8.5 3 0.4  9 3 0.4  9.5 3 0.4  10 3 0.4  0 0 0.5  0.5 0 0.5  1 0 0.5  1.5 0 0.5  2 0 0.5  2.5 0 0.5  3 0 0.5  3.5 0 0.5  4 0 0.5  4.5 0 0.5  5 0 0.5  5.5 0 0.5  6 0 0.5  6.5 0 0.5  7 0 0.5  7.5 0 0.5  8 0 0.5  8.5 0 0.5  9 0 0.5  9.5 0 0.5  10 0 0.5  0 0.5 0.5  0.5 0.5 0.5  1 0.5 0.5  1.5 0.5 0.5  2 0.5 0.5  2.5 0.5 0.5  3 0.5 0.5  3.5 0.5 0.5  4 0.5 0.5  4.5 0.5 0.5  5 0.5 0.5  5.5 0.5 0.5  6 0.5 0.5  6.5 0.5 0.5  7 0.5 0.5  7.5 0.5 0.5  8 0.5 0.5  8.5 0.5 0.5  9 0.5 0.5  9.5 0.5 0.5  10 0.5 0.5  0 1 0.5  0.5 1 0.5  1 1 0.5  1.5 1 0.5  2 1 0.5  2.5 1 0.5  3 1 0.5  3.5 1 0.5  4 1 0.5  4.5 1 0.5  5 1 0.5  5.5 1 0.5  6 1 0.5  6.5 1 0.5  7 1 0.5  7.5 1 0.5  8 1 0.5  8.5 1 0.5  9 1 0.5  9.5 1 0.5  10 1 0.5  0 1.5 0.5  0.5 1.5 0.5  1 1.5 0.5  1.5 1.5 0.5  2 1.5 0.5  2.5 1.5 0.5  3 1.5 0.5  3.5 1.5 0.5  4 1.5 0.5  4.5 1.5 0.5  5 1.5 0.5  5.5 1.5 0.5  6 1.5 0.5  6.5 1.5 0.5  7 1.5 0.5  7.5 1.5 0.5  8 1.5 0.5  8.5 1.5 0.5  9 1.5 0.5  9.5 1.5 0.5  10 1.5 0.5  0 2 0.5  0.5 2 0.5  1 2 0.5  1.5 2 0.5  2 2 0.5  2.5 2 0.5  3 2 0.5  3.5 2 0.5  4 2 0.5  4.5 2 0.5  5 2 0.5  5.5 2 0.5  6 2 0.5  6.5 2 0.5  7 2 0.5  7.5 2 0.5  8 2 0.5  8.5 2 0.5  9 2 0.5  9.5 2 0.5  10 2 0.5  0 2.5 0.5  0.5 2.5 0.5  1 2.5 0.5  1.5 2.5 0.5  2 2.5 0.5  2.5 2.5 0.5  3 2.5 0.5  3.5 2.5 0.5  4 2.5 0.5  4.5 2.5 0.5  5 2.5 0.5  5.5 2.5 0.5  6 2.5 0.5  6.5 2.5 0.5  7 2.5 0.5  7.5 2.5 0.5  8 2.5 0.5  8.5 2.5 0.5  9 2.5 0.5  9.5 2.5 0.5  10 2.5 0.5  0 3 0.5  0.5 3 0.5  1 3 0.5  1.5 3 0.5  2 3 0.5  2.5 3 0.5  3 3 0.5  3.5 3 0.5  4 3 0.5  4.5 3 0.5  5 3 0.5  5.5 3 0.5  6 3 0.5  6.5 3 0.5  7 3 0.5  7.5 3 0.5  8 3 0.5  8.5 3 0.5  9 3 0.5  9.5 3 0.5  10 3 0.5  </DataArray>
</Points>
<Cells>
[...]
<PointData  Vectors="f_7-0"> 
<DataArray  type="Float64"  Name="f_7-0"  NumberOfComponents="3" format="ascii">0.0000000000000000e+00 0.0000000000000000e+00 0.0000000000000000e+00  2.2807430773080978e-01 2.3586173019840434e-01 2.9699368444204205e-02  4.3056279373558032e-01 4.5186593405401987e-01 3.2953214614651720e-02  6.7292769427325538e-01 6.3260560192854820e-01 2.7278743687288817e-02  1.0294696505004410e+00 7.0171775227394062e-01 2.0269409690636616e-02  1.4312464748331970e+00 7.0232118555061895e-01 1.3210886613766716e-02  1.8403006591771418e+00 6.9346405866850380e-01 1.0957100642423145e-02  2.2459632478864542e+00 6.9219595142155610e-01 1.1641144758318751e-02  2.6495378288625280e+00 6.9422861022454241e-01 1.2348271490632664e-02  3.0531091280018297e+00 6.9576505217522111e-01 1.2504561028370904e-02  3.4571433603221897e+00 6.9629278543496065e-01 1.2445587119706529e-02  3.8614144621456741e+00 6.9637671800098411e-01 1.2399506784989732e-02  4.2657161981855234e+00 6.9640690364524105e-01 1.2399840265008909e-02  4.6699967453067206e+00 6.9646351866146494e-01 1.2414597599309220e-02  5.0742703120563322e+00 6.9651766320937381e-01 1.2424322014884392e-02  5.4785501119315008e+00 6.9655068032286838e-01 1.2427654000080642e-02  5.8828367546112075e+00 6.9656663002943353e-01 1.2428431436799966e-02  6.2871266579890710e+00 6.9657442319880614e-01 1.2428903368896576e-02  6.6914175333513164e+00 6.9657894042160429e-01 1.2429425975332111e-02  7.0957086978410420e+00 6.9658155630244056e-01 1.2429810378571830e-02  7.5000000000000027e+00 6.9658242186578723e-01 1.2429954826287394e-02  0.0000000000000000e+00 0.0000000000000000e+00 0.0000000000000000e+00  1.0377909409471724e-01 8.8837801551292145e-02 3.4997471157667992e-02  3.2066678122730169e-01 3.3220581232180080e-01 3.4656988931730394e-02  6.3750516978981187e-01 4.6479028066254552e-01 2.4358506197857330e-02  1.0268139177892202e+00 4.9631560328975932e-01 1.2805177001742440e-02  1.4348935132383451e+00 4.8795943925262458e-01 9.1485710875122625e-03  1.8413115381105467e+00 4.8208733094310491e-01 1.1117322119038838e-02  2.2453015558311979e+00 4.8309167857506602e-01 1.1839488026993224e-02  2.6489033251809637e+00 4.8533041112486397e-01 1.1661079466781485e-02  3.0528624540491558e+00 4.8646578231589827e-01 1.1472225426317699e-02  3.4571004835919115e+00 4.8674804409906347e-01 1.1386858872992789e-02  3.8614066741985695e+00 4.8678844797244697e-01 1.1374135922520935e-02  4.2656979255543153e+00 4.8683831603944605e-01 1.1377685951515573e-02  4.6699764239894979e+00 4.8690516242943316e-01 1.1376545646237581e-02  5.0742569961440802e+00 4.8695548355663343e-01 1.1372261891398215e-02  5.4785435461595178e+00 4.8698245843425259e-01 1.1368841292208149e-02  5.8828336351926591e+00 4.8699527233838286e-01 1.1367172452346246e-02  6.2871248811273315e+00 4.8700214034150480e-01 1.1366495125399818e-02  6.6914164241169889e+00 4.8700641824529789e-01 1.1366154221868815e-02  7.0957081485443725e+00 4.8700888757550381e-01 1.1365946432424672e-02  7.5000000000000027e+00 4.8700970256421811e-01 1.1365876277106456e-02  0.0000000000000000e+00 0.0000000000000000e+00 0.0000000000000000e+00  2.4411985916259333e-02 1.5398085395357333e-02 2.9488153484300041e-02  2.4981398540378499e-01 1.9114729114796911e-01 2.4009022146968803e-02  6.1750541277417725e-01 2.6936610836947411e-01 1.5339061405676698e-02  1.0277494735023989e+00 2.8033706092775174e-01 3.6625036402180683e-03  1.4374790078233488e+00 2.7468809347448986e-01 8.0613415226427655e-03  1.8415460064532037e+00 2.7285197838493791e-01 1.1558358458567739e-02  2.2445963528833794e+00 2.7436391606723526e-01 1.1312096306904230e-02  2.6483843874129929e+00 2.7609389443049442e-01 1.0690179354853453e-02  3.0526859869328700e+00 2.7690575512234034e-01 1.0390314466001988e-02  3.4570684951381674e+00 2.7712938699480705e-01 1.0332690013364013e-02  3.8613915223341464e+00 2.7720270605391995e-01 1.0342356406191780e-02  4.2656756516066370e+00 2.7727452723426754e-01 1.0339613021537799e-02  4.6699567017736605e+00 2.7734143811506512e-01 1.0325581936790484e-02  5.0742451780708029e+00 2.7738594583062232e-01 1.0313369380748557e-02  5.4785377259969872e+00 2.7740977148326917e-01 1.0306951628606446e-02  5.8828306737810836e+00 2.7742201269275735e-01 1.0304228159250937e-02  6.2871231097718274e+00 2.7742900766835632e-01 1.0302858917811231e-02  6.6914153344598084e+00 2.7743329961236946e-01 1.0301944803684635e-02  7.0957076227513793e+00 2.7743567450263679e-01 1.0301372497945096e-02  7.5000000000000027e+00 2.7743643648653027e-01 1.0301173111723676e-02  0.0000000000000000e+00 0.0000000000000000e+00 0.0000000000000000e+00  4.1934461742789367e-03 1.9205969522497601e-02 2.5614902714694118e-02  2.0655287320664908e-01 1.3544647510617560e-02 3.0909783370175865e-02  6.0931990542815884e-01 5.1616897431007489e-02 -2.5956264376160118e-03  1.0283655587791001e+00 5.9310757082340800e-02 1.2885432073320420e-03  1.4376807437610735e+00 6.2862822061828014e-02 9.1716777257870204e-03  1.8412907667403937e+00 6.4731780904002403e-02 1.0741073907150707e-02  2.2441159117407445e+00 6.5771791214567499e-02 1.0309891414518992e-02  2.6480490101510243e+00 6.6598687253538263e-02 9.5999812766738319e-03  3.0525424403703063e+00 6.7155262998684739e-02 9.2909218993765651e-03  3.4570153171276026e+00 6.7455305590439094e-02 9.2690257943357484e-03  3.8613609920835841e+00 6.7614558198948474e-02 9.2878029119182193e-03  4.2656510783869814e+00 6.7710023324673796e-02 9.2809045622029001e-03  4.6699391278839535e+00 6.7771342256339226e-02 9.2623343927166809e-03  5.0742346610517561e+00 6.7809992768113170e-02 9.2484850042902442e-03  5.4785319640800232e+00 6.7833327792168177e-02 9.2419469318996954e-03  5.8828274523753317e+00 6.7847024103235648e-02 9.2392402275282282e-03  6.2871212051024017e+00 6.7855005217827002e-02 9.2377522912550393e-03  6.6914142350839434e+00 6.7859578890580974e-02 9.2366990585961810e-03  7.0957071156067029e+00 6.7861948428760491e-02 9.2360416962407894e-03  7.5000000000000027e+00 6.7862686990810148e-02 9.2358209487684948e-03  0.0000000000000000e+00 0.0000000000000000e+00 0.0000000000000000e+00  3.3686952956125629e-02 4.0552221510889910e-03 3.2208074824183461e-02  2.2848854119939541e-01 -1.2938875963551072e-01 3.4715736697972392e-02  6.0677213851260470e-01 -1.8033134188520164e-01 -6.3158582894426683e-03  1.0250477714250261e+00 -1.6203824489227778e-01 4.3871406470991914e-03  1.4357918898052413e+00 -1.4899273797182327e-01 7.8438686235035599e-03  1.8405812209107255e+00 -1.4370116525362153e-01 9.1033493320790380e-03  2.2439723061990775e+00 -1.4289631018050872e-01 9.0035638883750047e-03  2.6479268009407777e+00 -1.4297653335313631e-01 8.4356107032951665e-03  3.0524071734505345e+00 -1.4267611606049546e-01 8.1851836195338933e-03  3.4569212629546304e+00 -1.4226326668584910e-01 8.1761624838919723e-03  3.8613094325399215e+00 -1.4199307457826757e-01 8.2008170454204218e-03  4.2656244891929394e+00 -1.4186474844517233e-01 8.2005595983985820e-03  4.6699240174996239e+00 -1.4180570864568898e-01 8.1877900048897747e-03  5.0742249757284652e+00 -1.4177070812173687e-01 8.1779363495404801e-03  5.4785256937846469e+00 -1.4174610405317042e-01 8.1735150068782958e-03  5.8828236374456946e+00 -1.4172973249281001e-01 8.1718755583169728e-03  6.2871190294538506e+00 -1.4172004810843619e-01 8.1710135646674356e-03  6.6914130739617352e+00 -1.4171482165102739e-01 8.1703549148630407e-03  7.0957066098113328e+00 -1.4171228069646280e-01 8.1699217151382543e-03  7.5000000000000027e+00 -1.4171152001225149e-01 8.1697723277648522e-03  0.0000000000000000e+00 0.0000000000000000e+00 0.0000000000000000e+00  9.4100212182032017e-02 -5.5480412255045831e-02 3.8207325503675102e-02  3.2470409880240697e-01 -2.6661309889818652e-01 2.1698160870112490e-02  6.1237792300077154e-01 -3.8846491145892509e-01 1.8335500097680042e-02  1.0189425671182080e+00 -3.8342245951753728e-01 1.8173857522566785e-03  1.4317927152757937e+00 -3.6294183536599933e-01 5.6983996092398207e-03  1.8393649436537032e+00 -3.5355793940868191e-01 7.0103727561834266e-03  2.2440168930709725e+00 -3.5193340039145088e-01 7.3306319396110875e-03  2.6479938261616578e+00 -3.5245040715006332e-01 7.2071347427401051e-03  3.0522918496152025e+00 -3.5246184099970634e-01 7.0657683667807100e-03  3.4567868627782459e+00 -3.5201722947593400e-01 7.0498936918527407e-03  3.8612331410690950e+00 -3.5164173190702153e-01 7.0819719599642195e-03  4.2655927606201507e+00 -3.5146101295875132e-01 7.0998676603400614e-03  4.6699097265773082e+00 -3.5139042604248116e-01 7.1029261083030417e-03  5.0742154937759656e+00 -3.5135445181683150e-01 7.1019842747015258e-03  5.4785186389229041e+00 -3.5132781752201947e-01 7.1016816468687767e-03  5.8828190250281081e+00 -3.5130839263590929e-01 7.1021805583272035e-03  6.2871164278422613e+00 -3.5129640718900296e-01 7.1027070960001928e-03  6.6914117585885373e+00 -3.5129001640225260e-01 7.1029682420848065e-03  7.0957060636684952e+00 -3.5128702991442046e-01 7.1030433887943438e-03  7.5000000000000027e+00 -3.5128617074678126e-01 7.1030504643083379e-03  0.0000000000000000e+00 0.0000000000000000e+00 0.0000000000000000e+00  2.1366789139074643e-01 -2.0798374998911787e-01 2.4859793671423210e-02  4.3177533903735205e-01 -3.9273712762414231e-01 2.1551413881062981e-02  6.5223689592051826e-01 -5.4652317281556106e-01 3.3232121897115302e-02  1.0123744358783175e+00 -6.0202595435012618e-01 5.0711934859699681e-03  1.4261926908717966e+00 -5.7977498538043626e-01 2.0160975621510554e-03  1.8373630502174443e+00 -5.6577890240389950e-01 4.3502553657725892e-03  2.2438885366127148e+00 -5.6170964648262145e-01 5.3769951174677680e-03  2.6481707621433235e+00 -5.6177715917719273e-01 5.8652853480027564e-03  3.0522337579161420e+00 -5.6209509183645789e-01 5.9046614143285934e-03  3.4566344360971186e+00 -5.6178183748167354e-01 5.8968836271566195e-03  3.8611308046051573e+00 -5.6134568181444555e-01 5.9370291533497564e-03  4.2655491903597582e+00 -5.6109004980554200e-01 5.9813108862802672e-03  4.6698926446630189e+00 -5.6098531407550911e-01 6.0080790203966275e-03  5.0742053873572450e+00 -5.6094050533515749e-01 6.0204857385651976e-03  5.4785107783397597e+00 -5.6091124602821285e-01 6.0265170530419123e-03  5.8828135329924001e+00 -5.6088901353773701e-01 6.0303265381228127e-03  6.2871132286126015e+00 -5.6087430221858314e-01 6.0329632375051038e-03  6.6914101538593753e+00 -5.6086614490121711e-01 6.0346079267975614e-03  7.0957054147355478e+00 -5.6086234536990065e-01 6.0354465482914893e-03  7.5000000000000027e+00 -5.6086125674632625e-01 6.0357013247025765e-03  0.0000000000000000e+00 0.0000000000000000e+00 0.0000000000000000e+00  2.2829220367788233e-01 2.3679925275628497e-01 1.9734708080454570e-02  4.3222800295535552e-01 4.5213257044635480e-01 1.8348518494912536e-02  6.7622020411426753e-01 6.3117038157785266e-01 1.5195226806469850e-02  1.0288708713928583e+00 7.0324574958733765e-01 1.3833702655488578e-02  1.4302106747258199e+00 7.0432702203340802e-01 9.0209560184518200e-03  1.8402151221723391e+00 6.9380200530154112e-01 6.4645132868084119e-03  2.2462110198954419e+00 6.9208063960661015e-01 6.5715695405651137e-03  2.6496547318462969e+00 6.9438045568496587e-01 7.1972784981218108e-03  3.0531315339386351e+00 6.9607886935686347e-01 7.4379840736223833e-03  3.4571436082471418e+00 6.9663826790000016e-01 7.4352116630586737e-03  3.8614175318502322e+00 6.9671486817233508e-01 7.4018336842746656e-03  4.2657220361386017e+00 6.9674153610467937e-01 7.3988784948252530e-03  4.6700013736606465e+00 6.9680197492889517e-01 7.4112593593165105e-03  5.0742727254968694e+00 6.9686091993325561e-01 7.4216469466608414e-03  5.4785511652904617e+00 6.9689668011378958e-01 7.4263178041791122e-03  5.8828372934472437e+00 6.9691369198566966e-01 7.4278574005712892e-03  6.2871270147950318e+00 6.9692190887924865e-01 7.4285789919944396e-03  6.6914177638074763e+00 6.9692670302810167e-01 7.4291692528310454e-03  7.0957088073603209e+00 6.9692951449279683e-01 7.4295897061131527e-03  7.5000000000000027e+00 6.9693045858007008e-01 7.4297497134260867e-03  0.0000000000000000e+00 0.0000000000000000e+00 0.0000000000000000e+00  1.0794152144975561e-01 9.4092555164562094e-02 2.1343263911234256e-02  3.2476542776531958e-01 3.3251946252440345e-01 2.0695300224405539e-02  6.3866524244204859e-01 4.6556494536978710e-01 1.5276755055194905e-02  1.0259016196695461e+00 4.9894078436694894e-01 8.1029536959739950e-03  1.4345786394152977e+00 4.8872809365155245e-01 5.1368096044433677e-03  1.8415854127734146e+00 4.8187768125567582e-01 6.2217481884894966e-03  2.2454582823321720e+00 4.8314353724424619e-01 6.6773453594207921e-03  2.6489380658407726e+00 4.8561433874422599e-01 6.5685078771158568e-03  3.0528655334663113e+00 4.8681327084766790e-01 6.4517078554655145e-03  3.4571043966147323e+00 4.8709112076571720e-01 6.3910757505277246e-03  3.8614133694729857e+00 4.8712354360745302e-01 6.3767789216063906e-03  4.2657033549985144e+00 4.8717503240923238e-01 6.3758401131865728e-03  4.6699793397362228e+00 4.8724696930988537e-01 6.3740047755966901e-03  5.0742582748845866e+00 4.8730085143901769e-01 6.3708403640731787e-03  5.4785441764378380e+00 4.8732933270536904e-01 6.3683088778585988e-03  5.8828340477105892e+00 4.8734268798498920e-01 6.3669512740191208e-03  6.2871251625892981e+00 4.8734986193102625e-01 6.3663260547774233e-03  6.6914165883263390e+00 4.8735438326434444e-01 6.3660036367547647e-03  7.0957082190935292e+00 4.8735701288563393e-01 6.3658223313186055e-03  7.5000000000000027e+00 4.8735787989028245e-01 6.3657625529919739e-03  0.0000000000000000e+00 0.0000000000000000e+00 0.0000000000000000e+00  2.3678507333311612e-02 1.5450197053219402e-02 1.6249009845971205e-02  2.5443163698042986e-01 1.9493443718903786e-01 1.3934082010330313e-02  6.1746335117097173e-01 2.7285341970561677e-01 9.2671469722818457e-03  1.0274990258028958e+00 2.8192089589025338e-01 1.2076552504848594e-03  1.4380575666427096e+00 2.7430858191154833e-01 3.7505875831167152e-03  1.8418368682217874e+00 2.7280028266668011e-01 6.2439766349101540e-03  2.2446433295022978e+00 2.7462456917116296e-01 6.1187433265573405e-03  2.6483801945433671e+00 2.7645118174667987e-01 5.6593630309861760e-03  3.0526882670350619e+00 2.7726245311784431e-01 5.4110257694261537e-03  3.4570779940009033e+00 2.7747191039690600e-01 5.3471810954107361e-03  3.8613997792742589e+00 2.7754189543677116e-01 5.3436205692897355e-03  4.2656798880040245e+00 2.7761708302060500e-01 5.3368343872291892e-03  4.6699583193081056e+00 2.7768737515414660e-01 5.3239712508598522e-03  5.0742458680406255e+00 2.7773337749447047e-01 5.3131489934581215e-03  5.4785381994975673e+00 2.7775760150099849e-01 5.3071061374520010e-03  5.8828310310156668e+00 2.7776999521020057e-01 5.3042803107604163e-03  6.2871233346955604e+00 2.7777714675271542e-01 5.3028089588727841e-03  6.6914154496731344e+00 2.7778157379939805e-01 5.3018815859356694e-03  7.0957076677701609e+00 2.7778402813412001e-01 5.3013288075819511e-03  7.5000000000000027e+00 2.7778481410623956e-01 5.3011416404642117e-03  0.0000000000000000e+00 0.0000000000000000e+00 0.0000000000000000e+00  6.6606711579085300e-03 1.6505240813085898e-02 1.4978570823586513e-02  2.0580852471459343e-01 1.3384653165107046e-02 1.7129940385669510e-02  6.0975765509310054e-01 5.5332050257010060e-02 -2.4407140949058467e-03  1.0297865224196254e+00 5.8487780768741046e-02 -9.1863021423324619e-04  1.4383831183436853e+00 6.2701042424107345e-02 4.2938295153641488e-03  1.8414653328798853e+00 6.5026417183431814e-02 5.4068898564612663e-03  2.2441176697226450e+00 6.6179790583984030e-02 5.1274243668912242e-03  2.6480402770120377e+00 6.6980827975071863e-02 4.6005997599135517e-03  3.0525516547586786e+00 6.7513198608512945e-02 4.3344212489661157e-03  3.4570283212405037e+00 6.7803511263731173e-02 4.2898138511793648e-03  3.8613689309668180e+00 6.7962524708163150e-02 4.2897741200877025e-03  4.2656542256153926e+00 6.8059455637464586e-02 4.2788367867930980e-03  4.6699402061555917e+00 6.8121023819874491e-02 4.2618699860555295e-03  5.0742352652678182e+00 6.8159202311608116e-02 4.2491865272108569e-03  5.4785324560383399e+00 6.8182141749417724e-02 4.2426118610630571e-03  5.8828277993880134e+00 6.8195684353444294e-02 4.2395400416187050e-03  6.2871214019069273e+00 6.8203627725307123e-02 4.2378392512714995e-03  6.6914143292909714e+00 6.8208185400914167e-02 4.2367312140308960e-03  7.0957071521975355e+00 6.8210541117272358e-02 4.2360763052119825e-03  7.5000000000000027e+00 6.8211272245022464e-02 4.2358614087131576e-03  0.0000000000000000e+00 0.0000000000000000e+00 0.0000000000000000e+00  3.3438299384239881e-02 1.4907247173116301e-03 1.7959012405236584e-02  2.2890163917869061e-01 -1.2635071273541099e-01 1.9474088531853145e-02  6.0935163733784370e-01 -1.8433228310368083e-01 -6.0900584026685554e-03  1.0268056613332479e+00 -1.6189004328833764e-01 1.1561282863768365e-03  1.4362954505824808e+00 -1.4868005420587346e-01 3.2153960496578561e-03  1.8406941369286851e+00 -1.4310950029737349e-01 3.9650306279372634e-03  2.2439788500131348e+00 -1.4239806929335913e-01 3.8588679618513661e-03  2.6479324421155193e+00 -1.4258235340175179e-01 3.4325749262349441e-03  3.0524233896964983e+00 -1.4231451821160726e-01 3.2298367841997778e-03  3.4569356033491783e+00 -1.4190440131215631e-01 3.2024473317983733e-03  3.8613167949444787e+00 -1.4163449982344220e-01 3.2075432738321225e-03  4.2656273887183422e+00 -1.4150869921832948e-01 3.2011976018500965e-03  4.6699253196455750e+00 -1.4145276073291935e-01 3.1885792764537344e-03  5.0742258475135662e+00 -1.4141983841178704e-01 3.1792526008025583e-03  5.4785263222142984e+00 -1.4139624049427482e-01 3.1745809826132965e-03  5.8828240311270017e+00 -1.4138033671393607e-01 3.1724637712138462e-03  6.2871192448406941e+00 -1.4137092684482924e-01 3.1712918069699671e-03  6.6914131817477358e+00 -1.4136588384166354e-01 3.1705092504694591e-03  7.0957066543854381e+00 -1.4136345047978985e-01 3.1700384988937792e-03  7.5000000000000027e+00 -1.4136272424315557e-01 3.1698810063965663e-03  0.0000000000000000e+00 0.0000000000000000e+00 0.0000000000000000e+00  9.5513106833011119e-02 -5.5578171699651423e-02 2.1390286119640493e-02  3.2746337044259161e-01 -2.6868312021114293e-01 1.1070330407555720e-02  6.1379529485222761e-01 -3.9190140111205957e-01 9.5073648717202662e-03  1.0201995169795892e+00 -3.8323123572351703e-01 -7.3487605318852301e-04  1.4323153150384418e+00 -3.6188738298510564e-01 1.4516482204714393e-03  1.8394506741155163e+00 -3.5280641798558149e-01 2.1979068380244444e-03  2.2440642447985013e+00 -3.5136723973904699e-01 2.2756031623585803e-03  2.6480245520880676e+00 -3.5203455030670294e-01 2.1734260069845900e-03  3.0523139747999055e+00 -3.5209017712589791e-01 2.0904622213849511e-03  3.4568013107966729e+00 -3.5164643110118843e-01 2.0795010218093352e-03  3.8612408110161289e+00 -3.5127314422165351e-01 2.0965514955700931e-03  4.2655966364357027e+00 -3.5109918609620949e-01 2.1047745002933833e-03  4.6699119651066532e+00 -3.5103454076132279e-01 2.1049118926827499e-03  5.0742169150871197e+00 -3.5100193302678145e-01 2.1035396870990324e-03  5.4785195245323930e+00 -3.5097688421676548e-01 2.1029694195581093e-03  5.8828195482038224e+00 -3.5095827887318393e-01 2.1030318016781145e-03  6.2871167247271202e+00 -3.5094681634232322e-01 2.1031842070765722e-03  6.6914119188867529e+00 -3.5094076912439004e-01 2.1032361637727793e-03  7.0957061344575747e+00 -3.5093797322236636e-01 2.1032296633697882e-03  7.5000000000000027e+00 -3.5093717398653784e-01 2.1032258098168085e-03  0.0000000000000000e+00 0.0000000000000000e+00 0.0000000000000000e+00  2.1379564101595722e-01 -2.0629868499933623e-01 1.6579792548378321e-02  4.3581322273029177e-01 -3.9796360057603936e-01 1.2406654389288172e-02  6.5496514578162690e-01 -5.4771420191777309e-01 1.8234700345305051e-02  1.0121397580093325e+00 -6.0346253397204275e-01 1.1790492716890844e-03  1.4267111985387784e+00 -5.7823189487619941e-01 -1.4190802883127299e-03  1.8375425523043891e+00 -5.6485092320859909e-01 -4.5280988737090994e-05  2.2439890340025648e+00 -5.6110438793414574e-01 4.5500056034425678e-04  2.6482369461063677e+00 -5.6132560061285719e-01 8.0228309275558814e-04  3.0522640038733435e+00 -5.6170503422