<?xml version="1.0"?>
<VTKFile type="UnstructuredGrid"  version="0.1"  >
<UnstructuredGrid>
<Piece  NumberOfPoints="882" NumberOfCells="3600">
<Points>
<DataArray  type="Float64"  NumberOfComponents="3"  format="ascii">0 0 0  0.5 0 0  1 0 0  1.5 0 0  2 0 0  2.5 0 0  3 0 0  3.5 0 0  4 0 0  4.5 0 0  5 0 0  5.5 0 0  6 0 0  6.5 0 0  7 0 0  7.5 0 0  8 0 0  8.5 0 0  9 0 0  9.5 0 0  10 0 0  0 0.5 0  0.5 0.5 0  1 0.5 0  1.5 0.5 0  2 0.5 0  2.5 0.5 0  3 0.5 0  3.5 0.5 0  4 0.5 0  4.5 0.5 0  5 0.5 0  5.5 0.5 0  6 0.5 0  6.5 0.5 0  7 0.5 0  7.5 0.5 0  8 0.5 0  8.5 0.5 0  9 0.5 0  9.5 0.5 0  10 0.5 0  0 1 0  0.5 1 0  1 1 0  1.5 1 0  2 1 0  2.5 1 0  3 1 0  3.5 1 0  4 1 0  4.5 1 0  5 1 0  5.5 1 0  6 1 0  6.5 1 0  7 1 0  7.5 1 0  8 1 0  8.5 1 0  9 1 0  9.5 1 0  10 1 0  0 1.5 0  0.5 1.5 0  1 1.5 0  1.5 1.5 0  2 1.5 0  2.5 1.5 0  3 1.5 0  3.5 1.5 0  4 1.5 0  4.5 1.5 0  5 1.5 0  5.5 1.5 0  6 1.5 0  6.5 1.5 0  7 1.5 0  7.5 1.5 0  8 1.5 0  8.5 1.5 0  9 1.5 0  9.5 1.5 0  10 1.5 0  0 2 0  0.5 2 0  1 2 0  1.5 2 0  2 2 0  2.5 2 0  3 2 0  3.5 2 0  4 2 0  4.5 2 0  5 2 0  5.5 2 0  6 2 0  6.5 2 0  7 2 0  7.5 2 0  8 2 0  8.5 2 0  9 2 0  9.5 2 0  10 2 0  0 2.5 0  0.5 2.5 0  1 2.5 0  1.5 2.5 0  2 2.5 0  2.5 2.5 0  3 2.5 0  3.5 2.5 0  4 2.5 0  4.5 2.5 0  5 2.5 0  5.5 2.5 0  6 2.5 0  6.5 2.5 0  7 2.5 0  7.5 2.5 0  8 2.5 0  8.5 2.5 0  9 2.5 0  9.5 2.5 0  10 2.5 0  0 3 0  0.5 3 0  1 3 0  1.5 3 0  2 3 0  2.5 3 0  3 3 0  3.5 3 0  4 3 0  4.5 3 0  5 3 0  5.5 3 0  6 3 0  6.5 3 0  7 3 0  7.5 3 0  8 3 0  8.5 3 0  9 3 0  9.5 3 0  10 3 0  0 0 0.1  0.5 0 0.1  1 0 0.1  1.5 0 0.1  2 0 0.1  2.5 0 0.1  3 0 0.1  3.5 0 0.1  4 0 0.1  4.5 0 0.1  5 0 0.1  5.5 0 0.1  6 0 0.1  6.5 0 0.1  7 0 0.1  7.5 0 0.1  8 0 0.1  8.5 0 0.1  9 0 0.1  9.5 0 0.1  10 0 0.1  0 0.5 0.1  0.5 0.5 0.1  1 0.5 0.1  1.5 0.5 0.1  2 0.5 0.1  2.5 0.5 0.1  3 0.5 0.1  3.5 0.5 0.1  4 0.5 0.1  4.5 0.5 0.1  5 0.5 0.1  5.5 0.5 0.1  6 0.5 0.1  6.5 0.5 0.1  7 0.5 0.1  7.5 0.5 0.1  8 0.5 0.1  8.5 0.5 0.1  9 0.5 0.1  9.5 0.5 0.1  10 0.5 0.1  0 1 0.1  0.5 1 0.1  1 1 0.1  1.5 1 0.1  2 1 0.1  2.5 1 0.1  3 1 0.1  3.5 1 0.1  4 1 0.1  4.5 1 0.1  5 1 0.1  5.5 1 0.1  6 1 0.1  6.5 1 0.1  7 1 0.1  7.5 1 0.1  8 1 0.1  8.5 1 0.1  9 1 0.1  9.5 1 0.1  10 1 0.1  0 1.5 0.1  0.5 1.5 0.1  1 1.5 0.1  1.5 1.5 0.1  2 1.5 0.1  2.5 1.5 0.1  3 1.5 0.1  3.5 1.5 0.1  4 1.5 0.1  4.5 1.5 0.1  5 1.5 0.1  5.5 1.5 0.1  6 1.5 0.1  6.5 1.5 0.1  7 1.5 0.1  7.5 1.5 0.1  8 1.5 0.1  8.5 1.5 0.1  9 1.5 0.1  9.5 1.5 0.1  10 1.5 0.1  0 2 0.1  0.5 2 0.1  1 2 0.1  1.5 2 0.1  2 2 0.1  2.5 2 0.1  3 2 0.1  3.5 2 0.1  4 2 0.1  4.5 2 0.1  5 2 0.1  5.5 2 0.1  6 2 0.1  6.5 2 0.1  7 2 0.1  7.5 2 0.1  8 2 0.1  8.5 2 0.1  9 2 0.1  9.5 2 0.1  10 2 0.1  0 2.5 0.1  0.5 2.5 0.1  1 2.5 0.1  1.5 2.5 0.1  2 2.5 0.1  2.5 2.5 0.1  3 2.5 0.1  3.5 2.5 0.1  4 2.5 0.1  4.5 2.5 0.1  5 2.5 0.1  5.5 2.5 0.1  6 2.5 0.1  6.5 2.5 0.1  7 2.5 0.1  7.5 2.5 0.1  8 2.5 0.1  8.5 2.5 0.1  9 2.5 0.1  9.5 2.5 0.1  10 2.5 0.1  0 3 0.1  0.5 3 0.1  1 3 0.1  1.5 3 0.1  2 3 0.1  2.5 3 0.1  3 3 0.1  3.5 3 0.1  4 3 0.1  4.5 3 0.1  5 3 0.1  5.5 3 0.1  6 3 0.1  6.5 3 0.1  7 3 0.1  7.5 3 0.1  8 3 0.1  8.5 3 0.1  9 3 0.1  9.5 3 0.1  10 3 0.1  0 0 0.2  0.5 0 0.2  1 0 0.2  1.5 0 0.2  2 0 0.2  2.5 0 0.2  3 0 0.2  3.5 0 0.2  4 0 0.2  4.5 0 0.2  5 0 0.2  5.5 0 0.2  6 0 0.2  6.5 0 0.2  7 0 0.2  7.5 0 0.2  8 0 0.2  8.5 0 0.2  9 0 0.2  9.5 0 0.2  10 0 0.2  0 0.5 0.2  0.5 0.5 0.2  1 0.5 0.2  1.5 0.5 0.2  2 0.5 0.2  2.5 0.5 0.2  3 0.5 0.2  3.5 0.5 0.2  4 0.5 0.2  4.5 0.5 0.2  5 0.5 0.2  5.5 0.5 0.2  6 0.5 0.2  6.5 0.5 0.2  7 0.5 0.2  7.5 0.5 0.2  8 0.5 0.2  8.5 0.5 0.2  9 0.5 0.2  9.5 0.5 0.2  10 0.5 0.2  0 1 0.2  0.5 1 0.2  1 1 0.2  1.5 1 0.2  2 1 0.2  2.5 1 0.2  3 1 0.2  3.5 1 0.2  4 1 0.2  4.5 1 0.2  5 1 0.2  5.5 1 0.2  6 1 0.2  6.5 1 0.2  7 1 0.2  7.5 1 0.2  8 1 0.2  8.5 1 0.2  9 1 0.2  9.5 1 0.2  10 1 0.2  0 1.5 0.2  0.5 1.5 0.2  1 1.5 0.2  1.5 1.5 0.2  2 1.5 0.2  2.5 1.5 0.2  3 1.5 0.2  3.5 1.5 0.2  4 1.5 0.2  4.5 1.5 0.2  5 1.5 0.2  5.5 1.5 0.2  6 1.5 0.2  6.5 1.5 0.2  7 1.5 0.2  7.5 1.5 0.2  8 1.5 0.2  8.5 1.5 0.2  9 1.5 0.2  9.5 1.5 0.2  10 1.5 0.2  0 2 0.2  0.5 2 0.2  1 2 0.2  1.5 2 0.2  2 2 0.2  2.5 2 0.2  3 2 0.2  3.5 2 0.2  4 2 0.2  4.5 2 0.2  5 2 0.2  5.5 2 0.2  6 2 0.2  6.5 2 0.2  7 2 0.2  7.5 2 0.2  8 2 0.2  8.5 2 0.2  9 2 0.2  9.5 2 0.2  10 2 0.2  0 2.5 0.2  0.5 2.5 0.2  1 2.5 0.2  1.5 2.5 0.2  2 2.5 0.2  2.5 2.5 0.2  3 2.5 0.2  3.5 2.5 0.2  4 2.5 0.2  4.5 2.5 0.2  5 2.5 0.2  5.5 2.5 0.2  6 2.5 0.2  6.5 2.5 0.2  7 2.5 0.2  7.5 2.5 0.2  8 2.5 0.2  8.5 2.5 0.2  9 2.5 0.2  9.5 2.5 0.2  10 2.5 0.2  0 3 0.2  0.5 3 0.2  1 3 0.2  1.5 3 0.2  2 3 0.2  2.5 3 0.2  3 3 0.2  3.5 3 0.2  4 3 0.2  4.5 3 0.2  5 3 0.2  5.5 3 0.2  6 3 0.2  6.5 3 0.2  7 3 0.2  7.5 3 0.2  8 3 0.2  8.5 3 0.2  9 3 0.2  9.5 3 0.2  10 3 0.2  0 0 0.3  0.5 0 0.3  1 0 0.3  1.5 0 0.3  2 0 0.3  2.5 0 0.3  3 0 0.3  3.5 0 0.3  4 0 0.3  4.5 0 0.3  5 0 0.3  5.5 0 0.3  6 0 0.3  6.5 0 0.3  7 0 0.3  7.5 0 0.3  8 0 0.3  8.5 0 0.3  9 0 0.3  9.5 0 0.3  10 0 0.3  0 0.5 0.3  0.5 0.5 0.3  1 0.5 0.3  1.5 0.5 0.3  2 0.5 0.3  2.5 0.5 0.3  3 0.5 0.3  3.5 0.5 0.3  4 0.5 0.3  4.5 0.5 0.3  5 0.5 0.3  5.5 0.5 0.3  6 0.5 0.3  6.5 0.5 0.3  7 0.5 0.3  7.5 0.5 0.3  8 0.5 0.3  8.5 0.5 0.3  9 0.5 0.3  9.5 0.5 0.3  10 0.5 0.3  0 1 0.3  0.5 1 0.3  1 1 0.3  1.5 1 0.3  2 1 0.3  2.5 1 0.3  3 1 0.3  3.5 1 0.3  4 1 0.3  4.5 1 0.3  5 1 0.3  5.5 1 0.3  6 1 0.3  6.5 1 0.3  7 1 0.3  7.5 1 0.3  8 1 0.3  8.5 1 0.3  9 1 0.3  9.5 1 0.3  10 1 0.3  0 1.5 0.3  0.5 1.5 0.3  1 1.5 0.3  1.5 1.5 0.3  2 1.5 0.3  2.5 1.5 0.3  3 1.5 0.3  3.5 1.5 0.3  4 1.5 0.3  4.5 1.5 0.3  5 1.5 0.3  5.5 1.5 0.3  6 1.5 0.3  6.5 1.5 0.3  7 1.5 0.3  7.5 1.5 0.3  8 1.5 0.3  8.5 1.5 0.3  9 1.5 0.3  9.5 1.5 0.3  10 1.5 0.3  0 2 0.3  0.5 2 0.3  1 2 0.3  1.5 2 0.3  2 2 0.3  2.5 2 0.3  3 2 0.3  3.5 2 0.3  4 2 0.3  4.5 2 0.3  5 2 0.3  5.5 2 0.3  6 2 0.3  6.5 2 0.3  7 2 0.3  7.5 2 0.3  8 2 0.3  8.5 2 0.3  9 2 0.3  9.5 2 0.3  10 2 0.3  0 2.5 0.3  0.5 2.5 0.3  1 2.5 0.3  1.5 2.5 0.3  2 2.5 0.3  2.5 2.5 0.3  3 2.5 0.3  3.5 2.5 0.3  4 2.5 0.3  4.5 2.5 0.3  5 2.5 0.3  5.5 2.5 0.3  6 2.5 0.3  6.5 2.5 0.3  7 2.5 0.3  7.5 2.5 0.3  8 2.5 0.3  8.5 2.5 0.3  9 2.5 0.3  9.5 2.5 0.3  10 2.5 0.3  0 3 0.3  0.5 3 0.3  1 3 0.3  1.5 3 0.3  2 3 0.3  2.5 3 0.3  3 3 0.3  3.5 3 0.3  4 3 0.3  4.5 3 0.3  5 3 0.3  5.5 3 0.3  6 3 0.3  6.5 3 0.3  7 3 0.3  7.5 3 0.3  8 3 0.3  8.5 3 0.3  9 3 0.3  9.5 3 0.3  10 3 0.3  0 0 0.4  0.5 0 0.4  1 0 0.4  1.5 0 0.4  2 0 0.4  2.5 0 0.4  3 0 0.4  3.5 0 0.4  4 0 0.4  4.5 0 0.4  5 0 0.4  5.5 0 0.4  6 0 0.4  6.5 0 0.4  7 0 0.4  7.5 0 0.4  8 0 0.4  8.5 0 0.4  9 0 0.4  9.5 0 0.4  10 0 0.4  0 0.5 0.4  0.5 0.5 0.4  1 0.5 0.4  1.5 0.5 0.4  2 0.5 0.4  2.5 0.5 0.4  3 0.5 0.4  3.5 0.5 0.4  4 0.5 0.4  4.5 0.5 0.4  5 0.5 0.4  5.5 0.5 0.4  6 0.5 0.4  6.5 0.5 0.4  7 0.5 0.4  7.5 0.5 0.4  8 0.5 0.4  8.5 0.5 0.4  9 0.5 0.4  9.5 0.5 0.4  10 0.5 0.4  0 1 0.4  0.5 1 0.4  1 1 0.4  1.5 1 0.4  2 1 0.4  2.5 1 0.4  3 1 0.4  3.5 1 0.4  4 1 0.4  4.5 1 0.4  5 1 0.4  5.5 1 0.4  6 1 0.4  6.5 1 0.4  7 1 0.4  7.5 1 0.4  8 1 0.4  8.5 1 0.4  9 1 0.4  9.5 1 0.4  10 1 0.4  0 1.5 0.4  0.5 1.5 0.4  1 1.5 0.4  1.5 1.5 0.4  2 1.5 0.4  2.5 1.5 0.4  3 1.5 0.4  3.5 1.5 0.4  4 1.5 0.4  4.5 1.5 0.4  5 1.5 0.4  5.5 1.5 0.4  6 1.5 0.4  6.5 1.5 0.4  7 1.5 0.4  7.5 1.5 0.4  8 1.5 0.4  8.5 1.5 0.4  9 1.5 0.4  9.5 1.5 0.4  10 1.5 0.4  0 2 0.4  0.5 2 0.4  1 2 0.4  1.5 2 0.4  2 2 0.4  2.5 2 0.4  3 2 0.4  3.5 2 0.4  4 2 0.4  4.5 2 0.4  5 2 0.4  5.5 2 0.4  6 2 0.4  6.5 2 0.4  7 2 0.4  7.5 2 0.4  8 2 0.4  8.5 2 0.4  9 2 0.4  9.5 2 0.4  10 2 0.4  0 2.5 0.4  0.5 2.5 0.4  1 2.5 0.4  1.5 2.5 0.4  2 2.5 0.4  2.5 2.5 0.4  3 2.5 0.4  3.5 2.5 0.4  4 2.5 0.4  4.5 2.5 0.4  5 2.5 0.4  5.5 2.5 0.4  6 2.5 0.4  6.5 2.5 0.4  7 2.5 0.4  7.5 2.5 0.4  8 2.5 0.4  8.5 2.5 0.4  9 2.5 0.4  9.5 2.5 0.4  10 2.5 0.4  0 3 0.4  0.5 3 0.4  1 3 0.4  1.5 3 0.4  2 3 0.4  2.5 3 0.4  3 3 0.4  3.5 3 0.4  4 3 0.4  4.5 3 0.4  5 3 0.4  5.5 3 0.4  6 3 0.4  6.5 3 0.4  7 3 0.4  7.5 3 0.4  8 3 0.4  8.5 3 0.4  9 3 0.4  9.5 3 0.4  10 3 0.4  0 0 0.5  0.5 0 0.5  1 0 0.5  1.5 0 0.5  2 0 0.5  2.5 0 0.5  3 0 0.5  3.5 0 0.5  4 0 0.5  4.5 0 0.5  5 0 0.5  5.5 0 0.5  6 0 0.5  6.5 0 0.5  7 0 0.5  7.5 0 0.5  8 0 0.5  8.5 0 0.5  9 0 0.5  9.5 0 0.5  10 0 0.5  0 0.5 0.5  0.5 0.5 0.5  1 0.5 0.5  1.5 0.5 0.5  2 0.5 0.5  2.5 0.5 0.5  3 0.5 0.5  3.5 0.5 0.5  4 0.5 0.5  4.5 0.5 0.5  5 0.5 0.5  5.5 0.5 0.5  6 0.5 0.5  6.5 0.5 0.5  7 0.5 0.5  7.5 0.5 0.5  8 0.5 0.5  8.5 0.5 0.5  9 0.5 0.5  9.5 0.5 0.5  10 0.5 0.5  0 1 0.5  0.5 1 0.5  1 1 0.5  1.5 1 0.5  2 1 0.5  2.5 1 0.5  3 1 0.5  3.5 1 0.5  4 1 0.5  4.5 1 0.5  5 1 0.5  5.5 1 0.5  6 1 0.5  6.5 1 0.5  7 1 0.5  7.5 1 0.5  8 1 0.5  8.5 1 0.5  9 1 0.5  9.5 1 0.5  10 1 0.5  0 1.5 0.5  0.5 1.5 0.5  1 1.5 0.5  1.5 1.5 0.5  2 1.5 0.5  2.5 1.5 0.5  3 1.5 0.5  3.5 1.5 0.5  4 1.5 0.5  4.5 1.5 0.5  5 1.5 0.5  5.5 1.5 0.5  6 1.5 0.5  6.5 1.5 0.5  7 1.5 0.5  7.5 1.5 0.5  8 1.5 0.5  8.5 1.5 0.5  9 1.5 0.5  9.5 1.5 0.5  10 1.5 0.5  0 2 0.5  0.5 2 0.5  1 2 0.5  1.5 2 0.5  2 2 0.5  2.5 2 0.5  3 2 0.5  3.5 2 0.5  4 2 0.5  4.5 2 0.5  5 2 0.5  5.5 2 0.5  6 2 0.5  6.5 2 0.5  7 2 0.5  7.5 2 0.5  8 2 0.5  8.5 2 0.5  9 2 0.5  9.5 2 0.5  10 2 0.5  0 2.5 0.5  0.5 2.5 0.5  1 2.5 0.5  1.5 2.5 0.5  2 2.5 0.5  2.5 2.5 0.5  3 2.5 0.5  3.5 2.5 0.5  4 2.5 0.5  4.5 2.5 0.5  5 2.5 0.5  5.5 2.5 0.5  6 2.5 0.5  6.5 2.5 0.5  7 2.5 0.5  7.5 2.5 0.5  8 2.5 0.5  8.5 2.5 0.5  9 2.5 0.5  9.5 2.5 0.5  10 2.5 0.5  0 3 0.5  0.5 3 0.5  1 3 0.5  1.5 3 0.5  2 3 0.5  2.5 3 0.5  3 3 0.5  3.5 3 0.5  4 3 0.5  4.5 3 0.5  5 3 0.5  5.5 3 0.5  6 3 0.5  6.5 3 0.5  7 3 0.5  7.5 3 0.5  8 3 0.5  8.5 3 0.5  9 3 0.5  9.5 3 0.5  10 3 0.5  </DataArray>
</Points>
<Cells>
[...]
<PointData  Vectors="f_7-0"> 
<DataArray  type="Float64"  Name="f_7-0"  NumberOfComponents="3" format="ascii">0.0000000000000000e+00 0.0000000000000000e+00 0.0000000000000000e+00  1.5838644817116415e-01 1.2529066257080579e-01 2.7930708843628037e-02  3.0409228200335908e-01 2.2900756628890651e-01 2.5674596007181735e-02  4.5723903446472142e-01 3.0300377425822095e-01 2.8855090297702814e-02  6.5817549087184446e-01 3.3335792121365032e-01 3.2756531612919935e-02  8.9531289722676399e-01 3.3265050039091359e-01 3.3595567972964070e-02  1.1401710893976060e+00 3.2732620975731519e-01 3.3109863604310105e-02  1.3817403802348509e+00 3.2631501999417872e-01 3.2880359248895243e-02  1.6212252168317975e+00 3.2712872082843880e-01 3.2870921737939492e-02  1.8606291037847833e+00 3.2776825072227533e-01 3.2893532587983720e-02  2.1003711717408216e+00 3.2799757477916841e-01 3.2902910313152831e-02  2.3402938704703851e+00 3.2804668496731443e-01 3.2903259236759116e-02  2.5802571566984023e+00 3.2806168759867993e-01 3.2902154927862526e-02  2.8202195125658891e+00 3.2807753805591855e-01 3.2901811433416132e-02  3.0601811921885740e+00 3.2809147589324916e-01 3.2901966733220669e-02  3.3001462715162657e+00 3.2810011349450641e-01 3.2902159947558393e-02  3.5401148110934120e+00 3.2810445225448470e-01 3.2902253378562049e-02  3.7800852916379020e+00 3.2810652780946786e-01 3.2902281451773617e-02  4.0200565971430828e+00 3.2810758979921034e-01 3.2902288853867014e-02  4.2600282340547269e+00 3.2810813002097461e-01 3.2902292613123628e-02  4.5000000000000009e+00 3.2810829822673482e-01 3.2902294444350173e-02  0.0000000000000000e+00 0.0000000000000000e+00 0.0000000000000000e+00  8.2703482554347660e-02 4.6572302850387090e-02 2.9716953029765691e-02  2.4205135756387605e-01 1.6345874484709144e-01 2.9720058008069358e-02  4.2809297005231639e-01 2.2447311121112420e-01 3.2065121915901613e-02  6.5556645845373895e-01 2.3779727429565384e-01 3.3213224841995098e-02  8.9910856122082505e-01 2.3151568810060036e-01 3.2849564911544053e-02  1.1414719474887289e+00 2.2775589606734956e-01 3.2892514729031957e-02  1.3813533087839474e+00 2.2802460901922841e-01 3.2938602787420251e-02  1.6207687015298089e+00 2.2896669877140280e-01 3.2928821592773862e-02  1.8604420658364389e+00 2.2943723568311300e-01 3.2924072720059899e-02  2.1003290816136797e+00 2.2956225945487663e-01 3.2922386863871445e-02  2.3402853842612146e+00 2.2958484160407261e-01 3.2922115891798671e-02  2.5802487349499623e+00 2.2959966971989548e-01 3.2922263742393078e-02  2.8202108600800386e+00 2.2961645151897173e-01 3.2922406680278189e-02  3.0601753456206562e+00 2.2962894268899878e-01 3.2922480718894087e-02  3.3001432396599326e+00 2.2963580095160147e-01 3.2922512056443136e-02  3.5401133796046267e+00 2.2963907709011100e-01 3.2922528908991215e-02  3.7800845719103964e+00 2.2964069079442942e-01 3.2922540071500736e-02  4.0200562103912896e+00 2.2964156474259140e-01 3.2922546753098449e-02  4.2600280584581567e+00 2.2964202098154698e-01 3.2922549948645692e-02  4.5000000000000009e+00 2.2964216497668730e-01 3.2922550647252392e-02  0.0000000000000000e+00 0.0000000000000000e+00 0.0000000000000000e+00  3.8113169242945909e-02 8.5259169818627158e-03 2.3101366508526809e-02  1.8830011970195673e-01 9.0587273970536300e-02 3.3960581832494140e-02  4.0871669042185982e-01 1.3253911910464317e-01 3.3574869469618629e-02  6.5620085428410324e-01 1.3531129740459424e-01 3.2249997609639557e-02  9.0215311764294293e-01 1.3057041678631562e-01 3.2316774324225125e-02  1.1420550947219439e+00 1.2935827877074593e-01 3.2877964632039167e-02  1.3809031417682129e+00 1.3000543540880535e-01 3.2994118892935187e-02  1.6203956829421575e+00 1.3070430949790637e-01 3.2969917864302860e-02  1.8603032070490313e+00 1.3101115098022578e-01 3.2946504742948940e-02  2.1002975488686833e+00 1.3109463124992746e-01 3.2940169135606684e-02  2.3402756949624042e+00 1.3111932874887960e-01 3.2941219586844359e-02  2.5802392134443921e+00 1.3113831052409947e-01 3.2942577743168555e-02  2.8202025780866498e+00 1.3115452843330552e-01 3.2942969290450166e-02  3.0601701876674161e+00 1.3116499877857152e-01 3.2942902574748086e-02  3.3001406242166693e+00 1.3117051438510882e-01 3.2942810918362125e-02  3.5401121149407646e+00 1.3117323364703856e-01 3.2942787486817865e-02  3.7800839133463677e+00 1.3117464782283661e-01 3.2942794561269723e-02  4.0200558529458679e+00 1.3117542753523373e-01 3.2942802208187877e-02  4.2600278968951484e+00 1.3117582849974671e-01 3.2942804708842158e-02  4.5000000000000009e+00 1.3117595282688793e-01 3.2942805116245477e-02  0.0000000000000000e+00 0.0000000000000000e+00 0.0000000000000000e+00  3.0560521161281478e-02 7.0196613981803801e-03 1.7554886513062060e-02  1.5312775364746731e-01 8.9719038329334391e-03 3.8659878836881038e-02  4.0048794873247051e-01 2.8290706922356187e-02 3.2050434715881530e-02  6.5760731893926838e-01 2.9089539690540293e-02 3.1707191579337192e-02  9.0275846091119460e-01 3.0473542851285122e-02 3.2471167924443774e-02  1.1418757155645587e+00 3.1586600612544508e-02 3.2927681469985856e-02  1.3805734804633076e+00 3.2091614669300106e-02 3.3015351217927043e-02  1.6201785714689967e+00 3.2358044966301007e-02 3.2992708329019946e-02  1.8602095451002212e+00 3.2516700720506012e-02 3.2965897287160845e-02  2.1002629934827675e+00 3.2603149283368320e-02 3.2959734900562108e-02  2.3402588181552129e+00 3.2649761987641648e-02 3.2961419139701374e-02  2.5802277840734558e+00 3.2676159853966283e-02 3.2963016579274994e-02  2.8201950305864250e+00 3.2691228199021989e-02 3.2963355389864175e-02  3.0601658359851243e+00 3.2699673680077791e-02 3.2963203183338639e-02  3.3001383222664660e+00 3.2704362823872617e-02 3.2963077225700167e-02  3.5401109070519525e+00 3.2706964155250262e-02 3.2963045790826276e-02  3.7800832611141049e+00 3.2708400480006068e-02 3.2963050700769776e-02  4.0200555064815218e+00 3.2709174011100822e-02 3.2963056702503650e-02  4.2600277455093405e+00 3.2709552138119852e-02 3.2963057929451249e-02  4.5000000000000009e+00 3.2709665615386199e-02 3.2963058099829155e-02  0.0000000000000000e+00 0.0000000000000000e+00 0.0000000000000000e+00  4.0402755191610143e-02 -4.2920693844372357e-04 2.4511292326409747e-02  1.6743648792323240e-01 -5.7234215314938774e-02 3.6209091044201336e-02  3.9989748984091278e-01 -8.4520785384118405e-02 3.1627352895125617e-02  6.5593380109584853e-01 -7.6539403883529436e-02 3.2202795409061444e-02  9.0081276276893441e-01 -6.9380664764692457e-02 3.2783246104443609e-02  1.1410609202596949e+00 -6.6356969776412977e-02 3.2979572605151219e-02  1.3804214893013107e+00 -6.5923656322573645e-02 3.3020676793896662e-02  1.6201327260621050e+00 -6.6027390749615639e-02 3.3004625179755796e-02  1.8601540306532431e+00 -6.6000027328273717e-02 3.2986075641526696e-02  2.1002170899314585e+00 -6.5900932123868550e-02 3.2981619796812717e-02  2.3402313178590970e+00 -6.5826205814451560e-02 3.2982505255572510e-02  2.5802138688480802e+00 -6.5789561491444770e-02 3.2983444451158812e-02  2.8201881838766449e+00 -6.5774206924222936e-02 3.2983563128648280e-02  3.0601621577998332e+00 -6.5766876182540013e-02 3.2983423793647167e-02  3.3001361753917808e+00 -6.5762463825054907e-02 3.2983332997698796e-02  3.5401096528268923e+00 -6.5759678455910645e-02 3.2983308885890815e-02  3.7800825651703933e+00 -6.5758058844733319e-02 3.2983309171160380e-02  4.0200551498078108e+00 -6.5757206377801636e-02 3.2983311069389586e-02  4.2600275967041776e+00 -6.5756809379355310e-02 3.2983310900006259e-02  4.5000000000000009e+00 -6.5756694743304131e-02 3.2983310571644227e-02  0.0000000000000000e+00 0.0000000000000000e+00 0.0000000000000000e+00  7.0411484686580594e-02 -2.8586537199071265e-02 3.1179675186508847e-02  2.2309582227979330e-01 -1.2665446204286590e-01 2.9350965054009862e-02  4.0902289162137329e-01 -1.8609478248403014e-01 3.1978903323348705e-02  6.5068521339761354e-01 -1.8104502460931132e-01 3.2936065177732128e-02  8.9699136533583046e-01 -1.6980218236800373e-01 3.3126793447335573e-02  1.1397537828277702e+00 -1.6507670200291605e-01 3.3058459199604644e-02  1.3803354602548195e+00 -1.6422057427202252e-01 3.3025051038818955e-02  1.6202074185209159e+00 -1.6441580940317127e-01 3.3010602433938836e-02  1.8601329920893395e+00 -1.6449528663574348e-01 3.3006215313736494e-02  2.1001619055548075e+00 -1.6440646800818168e-01 3.3004584121926660e-02  2.3401935514461054e+00 -1.6431129989179780e-01 3.3004164788971065e-02  2.5801967982341250e+00 -1.6426177819773460e-01 3.3003905178983078e-02  2.8201813272323619e+00 -1.6424251795255110e-01 3.3003707232126082e-02  3.0601587621819832e+00 -1.6423449651241040e-01 3.3003621332087320e-02  3.3001340298759612e+00 -1.6422979529713180e-01 3.3003591423104196e-02  3.5401082910383028e+00 -1.6422665433717390e-01 3.3003579449886543e-02  3.7800817909501450e+00 -1.6422474361578995e-01 3.3003572504555857e-02  4.0200547608284927e+00 -1.6422372673645333e-01 3.3003567846522086e-02  4.2600274395279056e+00 -1.6422325932865411e-01 3.3003565178748646e-02  4.5000000000000009e+00 -1.6422312787720725e-01 3.3003564079591277e-02  0.0000000000000000e+00 0.0000000000000000e+00 0.0000000000000000e+00  1.3872997494929962e-01 -9.4498450006623366e-02 2.9083890153086819e-02  2.8704730166639048e-01 -1.9827567005885563e-01 2.4258891639657887e-02  4.3514773580091393e-01 -2.6434056647637594e-01 2.9633373164174633e-02  6.4462548481883941e-01 -2.8291181178013153e-01 3.4032942700601421e-02  8.9212803142058161e-01 -2.7145401583853629e-01 3.3219609089210421e-02  1.1379974426785846e+00 -2.6489349619577846e-01 3.3161989506623642e-02  1.3801233329926312e+00 -2.6290427136111577e-01 3.3055757429678284e-02  1.6203149494675471e+00 -2.6281078723080409e-01 3.3025496324933859e-02  1.8601417191351417e+00 -2.6294397614682335e-01 3.3023196066525359e-02  2.1001068514111547e+00 -2.6290411222573534e-01 3.3025562482824442e-02  2.3401489048302504e+00 -2.6280672863842874e-01 3.3025536903463569e-02  2.5801758366721805e+00 -2.6274249028550267e-01 3.3024567553024513e-02  2.8201732832410125e+00 -2.6271436191466541e-01 3.3024030482571798e-02  3.0601551056090099e+00 -2.6270319189033980e-01 3.3023884528483649e-02  3.3001317495468268e+00 -2.6269755851283044e-01 3.3023864628943647e-02  3.5401067951220773e+00 -2.6269394800314644e-01 3.3023856800445492e-02  3.7800809174708863e+00 -2.6269166785011988e-01 3.3023842916151208e-02  4.0200543184435649e+00 -2.6269040005910438e-01 3.3023830487413704e-02  4.2600272613659147e+00 -2.6268980386350260e-01 3.3023823363926771e-02  4.5000000000000009e+00 -2.6268963384035254e-01 3.3023820750479077e-02  0.0000000000000000e+00 0.0000000000000000e+00 0.0000000000000000e+00  1.5892297084829135e-01 1.2504235479094944e-01 1.7369592619524140e-02  3.0385867326447918e-01 2.2840260817452374e-01 1.5064130448975076e-02  4.5726390359156371e-01 3.0232524334304206e-01 1.6626640856076583e-02  6.5826122823341005e-01 3.3321798928213858e-01 1.9272326557653326e-02  8.9529375826196000e-01 3.3281417966296822e-01 1.9880987590502299e-02  1.1401509346828569e+00 3.2738446473148108e-01 1.9464719678895084e-02  1.3817379358013959e+00 3.2630533240764226e-01 1.9266484605327445e-02  1.6212268942704617e+00 3.2711572759084817e-01 1.9257882867437875e-02  1.8606304460754974e+00 3.2776104871604833e-01 1.9275488296875212e-02  2.1003716638089260e+00 3.2799313835093086e-01 1.9282195301819498e-02  2.3402939390997917e+00 3.2804259830773824e-01 1.9282020510641706e-02  2.5802571369350629e+00 3.2805738056791361e-01 1.9280993803022416e-02  2.8202195076839995e+00 3.2807311712124959e-01 1.9280693955738889e-02  3.0601812002511650e+00 3.2808706238978425e-01 1.9280813256014974e-02  3.3001462785865807e+00 3.2809573314638818e-01 1.9280961662375376e-02  3.5401148141208738e+00 3.2810008966310711e-01 1.9281030076878199e-02  3.7800852925509520e+00 3.2810216972037048e-01 1.9281048198156740e-02  4.0200565975170699e+00 3.2810323208264591e-01 1.9281051817499634e-02  4.2600282343560849e+00 3.2810377245304984e-01 1.9281053730162877e-02  4.5000000000000009e+00 3.2810394137676829e-01 1.9281055055358046e-02  0.0000000000000000e+00 0.0000000000000000e+00 0.0000000000000000e+00  8.3228156979003556e-02 4.8413794800542205e-02 1.7837499941237005e-02  2.4200786705045838e-01 1.6275726175195457e-01 1.7537450227776853e-02  4.2815759404183096e-01 2.2400759327930680e-01 1.8788868021665035e-02  6.5556085872003500e-01 2.3777192622081003e-01 1.9548867932339949e-02  8.9914498454837022e-01 2.3155700840559015e-01 1.9276318457144448e-02  1.1414803273628047e+00 2.2777729627983431e-01 1.9295500737152853e-02  1.3813476065518495e+00 2.2802650447554387e-01 1.9318130086413202e-02  1.6207669814993488e+00 2.2896020609625736e-01 1.9306592568694630e-02  1.8604427703776218e+00 2.2943096370781213e-01 1.9302637140239321e-02  2.1003298177654814e+00 2.2955729841393391e-01 1.9301390166158679e-02  2.3402856630454298e+00 2.2958041235544827e-01 1.9301132491796835e-02  2.5802487734171105e+00 2.2959530114023499e-01 1.9301162597155849e-02  2.8202108510644983e+00 2.2961205609714067e-01 1.9301220160915664e-02  3.0601753452061025e+00 2.2962454731142817e-01 1.9301260098716404e-02  3.3001432456779258e+00 2.2963142164116040e-01 1.9301281666219545e-02  3.5401133846420083e+00 2.2963471053242293e-01 1.9301294310595362e-02  3.7800845743823848e+00 2.2963633015059420e-01 1.9301302128738537e-02  4.0200562113948273e+00 2.2963720621707659e-01 1.9301306439209652e-02  4.2600280589421828e+00 2.2963766330655630e-01 1.9301308395032649e-02  4.5000000000000009e+00 2.2963780760903349e-01 1.9301308855228315e-02  0.0000000000000000e+00 0.0000000000000000e+00 0.0000000000000000e+00  3.6498505670436214e-02 9.1687860137066018e-03 1.3637265957919179e-02  1.8953819462861407e-01 9.1216868605727336e-02 1.9912211179682938e-02  4.0881743053597130e-01 1.3248483435012703e-01 1.9727764872714996e-02  6.5635896602430832e-01 1.3527056659757020e-01 1.8881930120608334e-02  9.0219872364148057e-01 1.3053857910769318e-01 1.8894093111872963e-02  1.1420339527204226e+00 1.2936903250096793e-01 1.9279809058209040e-02  1.3808941697321451e+00 1.3000924830271476e-01 1.9354253817656195e-02  1.6203964903128452e+00 1.3069978269986560e-01 1.9339208908839806e-02  1.8603052595082690e+00 1.3100535829433099e-01 1.9324284255458572e-02  2.1002984711544812e+00 1.3108962638064817e-01 1.9319995953639882e-02  2.3402758553014720e+00 1.3111484163204096e-01 1.9320617763979569e-02  2.5802391836472407e+00 1.3113394182720789e-01 1.9321452820569469e-02  2.8202025643212330e+00 1.3115015283532039e-01 1.9321684078490595e-02  3.0601701991687826e+00 1.3116061723485181e-01 1.9321631680033185e-02  3.3001406374896227e+00 1.3116614000571283e-01 1.9321568274946608e-02  3.5401121218018474e+00 1.3116886810845360e-01 1.9321551423029524e-02  3.7800839158098385e+00 1.3117028745129070e-01 1.9321555340961274e-02  4.0200558538443776e+00 1.3117106930471562e-01 1.9321560034354299e-02  4.2600278973821570e+00 1.3117147110996827e-01 1.9321561577350561e-02  4.5000000000000009e+00 1.3117159564710321e-01 1.9321561813850769e-02  0.0000000000000000e+00 0.0000000000000000e+00 0.0000000000000000e+00  2.9375297130705007e-02 6.6553316254394672e-03 1.0372890502259830e-02  1.5290620393215637e-01 8.8751981547245187e-03 2.2749631662759326e-02  4.0094292715540020e-01 2.8430420592367139e-02 1.8704052500796473e-02  6.5783477163950277e-01 2.8920116488723703e-02 1.8513899428134455e-02  9.0273237825770480e-01 3.0423306852220278e-02 1.9025211663334013e-02  1.1418436446586817e+00 3.1583005796976565e-02 1.9317714653618097e-02  1.3805672651295229e+00 3.2093461165534749e-02 1.9370257441475601e-02  1.6201821402115513e+00 3.2354578837057009e-02 1.9359877839057408e-02  1.8602123062744949e+00 3.2511416914423205e-02 1.9343673595296765e-02  2.1002637255014109e+00 3.2598152231626785e-02 1.9339893511167786e-02  2.3402587876237400e+00 3.2645209466617607e-02 1.9340890274129049e-02  2.5802277027329636e+00 3.2671775235840042e-02 1.9341829737735291e-02  2.8201950243628651e+00 3.2686866087759912e-02 1.9342018892378264e-02  3.0601658578506554e+00 3.2695305062025719e-02 1.9341913710643553e-02  3.3001383378101696e+00 3.2699994136005987e-02 1.9341830192623245e-02  3.5401109127562473e+00 3.2702600188019355e-02 1.9341808081040652e-02  3.7800832625081324e+00 3.2704040461764998e-02 1.9341809943187922e-02  4.0200555069583936e+00 3.2704815957042450e-02 1.9341813232757653e-02  4.2600277458256732e+00 3.2705194910282433e-02 1.9341813901080626e-02  4.5000000000000009e+00 3.2705308568987700e-02 1.9341813954792047e-02  0.0000000000000000e+00 0.0000000000000000e+00 0.0000000000000000e+00  3.9243586614643569e-02 -1.4772189416422930e-03 1.4372460384275173e-02  1.6714782427474004e-01 -5.6701016527670754e-02 2.1397090136073767e-02  4.0080741409321818e-01 -8.4693299324873614e-02 1.8356297949400219e-02  6.5599216707190200e-01 -7.6667720616075172e-02 1.8926971475592462e-02  9.0077271622528254e-01 -6.9436052910037932e-02 1.9247357574387218e-02  1.1410358357489012e+00 -6.6368953301413305e-02 1.9362868977909328e-02  1.3804185744626956e+00 -6.5926831271252886e-02 1.9385348619909357e-02  1.6201369017259075e+00 -6.6030938856941723e-02 1.9375216086449772e-02  1.8601565792230050e+00 -6.6004759197316756e-02 1.9363779360984098e-02  2.1002176197347886e+00 -6.5905764083606835e-02 1.9361236969221551e-02  2.3402312169963615e+00 -6.5830783974130225e-02 1.9361686182562125e-02  2.5802137851170635e+00 -6.5793972251461094e-02 1.9362192312861255e-02  2.8201881853011490e+00 -6.5778570971952666e-02 1.9362232962393835e-02  3.0601621806454511e+00 -6.5771239150942754e-02 1.9362137853306635e-02  3.3001361886859826e+00 -6.5766828515535641e-02 1.9362080632929428e-02  3.5401096567703361e+00 -6.5764041138662424e-02 1.9362065416997216e-02  3.7800825658094359e+00 -6.5762418818570631e-02 1.9362065237995781e-02  4.0200551500026025e+00 -6.5761564594951458e-02 1.9362066207769885e-02  4.2600275968307040e+00 -6.5761166701533202e-02 1.9362066069783468e-02  4.5000000000000009e+00 -6.5761051836414300e-02 1.9362065848542595e-02  0.0000000000000000e+00 0.0000000000000000e+00 0.0000000000000000e+00  7.0052313460946522e-02 -2.8977322955482727e-02 1.8347582903571750e-02  2.2356345846824768e-01 -1.2666453620530060e-01 1.7329957253585181e-02  4.0918885730968685e-01 -1.8595664071304793e-01 1.8825861152542350e-02  6.5081857325785142e-01 -1.8102856576098508e-01 1.9441649314790636e-02  8.9697647722225127e-01 -1.6983315655606906e-01 1.9487526313288601e-02  1.1397395844461848e+00 -1.6509683765217703e-01 1.9431431537415604e-02  1.3803354466460054e+00 -1.6423058962136733e-01 1.9401343271349451e-02  1.6202098611054416e+00 -1.6442085915270041e-01 1.9387624103120057e-02  1.8601346415236670e+00 -1.6449936211075566e-01 1.9384363071011934e-02  2.1001623383862431e+00 -1.6441085210418283e-01 1.9383176017921919e-02  2.3401935220034593e+00 -1.6431580522975223e-01 1.9382774731306170e-02  2.5801967534309096e+00 -1.6426622784742240e-01 1.9382542289452857e-02  2.8201813288919486e+00 -1.6424691111462003e-01 1.9382394756154924e-02  3.0601587758058644e+00 -1.6423886642766788e-01 1.9382343214829893e-02  3.3001340378521307e+00 -1.6423415926940069e-01 1.9382330216078249e-02  3.5401082934961456e+00 -1.6423101654839764e-01 1.9382326057740370e-02  3.7800817913880760e+00 -1.6422910415449479e-01 1.9382323061236280e-02  4.0200547609217532e+00 -1.6422808568994093e-01 1.9382320605924881e-02  4.2600274395056852e+00 -1.6422761719472742e-01 1.9382319129586056e-02  4.5000000000000009e+00 -1.6422748531938985e-01 1.9382318528987027e-02  0.0000000000000000e+00 0.0000000000000000e+00 0.0000000000000000e+00  1.3794824408001535e-01 -9.5319866239526013e-02 1.8066110997936185e-02  2.8780543392532543e-01 -1.9837582035105192e-01 1.4529112713455781e-02  4.3499577024187669e-01 -2.6385166187897685e-01 1.7689004844672722e-02  6.4468406100381892e-01 -2.8297643479177309e-01 2.0256503702793586e-02  8.9212037344682604e-01 -2.7143668147697336e-01 1.9530530617593810e-02  1.1379936752914663e+00 -2.6491777518462856e-01 1.9511860302527925e-02  1.3801235618195187e+00 -2.6291940318681134e-01 1.9427689797071442e-02  1.6203163840246371e+00 -2.6281741473640302e-01 1.9406351689302291e-02  1.8601429420934710e+00 -2.6294760768344000