<?xml version="1.0"?>
<VTKFile type="UnstructuredGrid"  version="0.1"  >
<UnstructuredGrid>
<Piece  NumberOfPoints="2976" NumberOfCells="13500">
<Points>
<DataArray  type="Float64"  NumberOfComponents="3"  format="ascii">0 0 0  0.3333333333333333 0 0  0.6666666666666666 0 0  1 0 0  1.333333333333333 0 0  1.666666666666667 0 0  2 0 0  2.333333333333333 0 0  2.666666666666667 0 0  3 0 0  3.333333333333333 0 0  3.666666666666667 0 0  4 0 0  4.333333333333333 0 0  4.666666666666667 0 0  5 0 0  5.333333333333333 0 0  5.666666666666667 0 0  6 0 0  6.333333333333333 0 0  6.666666666666667 0 0  7 0 0  7.333333333333333 0 0  7.666666666666667 0 0  8 0 0  8.333333333333334 0 0  8.666666666666666 0 0  9 0 0  9.333333333333334 0 0  9.666666666666666 0 0  10 0 0  0 0.2 0  0.3333333333333333 0.2 0  0.6666666666666666 0.2 0  1 0.2 0  1.333333333333333 0.2 0  1.666666666666667 0.2 0  2 0.2 0  2.333333333333333 0.2 0  2.666666666666667 0.2 0  3 0.2 0  3.333333333333333 0.2 0  3.666666666666667 0.2 0  4 0.2 0  4.333333333333333 0.2 0  4.666666666666667 0.2 0  5 0.2 0  5.333333333333333 0.2 0  5.666666666666667 0.2 0  6 0.2 0  6.333333333333333 0.2 0  6.666666666666667 0.2 0  7 0.2 0  7.333333333333333 0.2 0  7.666666666666667 0.2 0  8 0.2 0  8.333333333333334 0.2 0  8.666666666666666 0.2 0  9 0.2 0  9.333333333333334 0.2 0  9.666666666666666 0.2 0  10 0.2 0  0 0.4 0  0.3333333333333333 0.4 0  0.6666666666666666 0.4 0  1 0.4 0  1.333333333333333 0.4 0  1.666666666666667 0.4 0  2 0.4 0  2.333333333333333 0.4 0  2.666666666666667 0.4 0  3 0.4 0  3.333333333333333 0.4 0  3.666666666666667 0.4 0  4 0.4 0  4.333333333333333 0.4 0  4.666666666666667 0.4 0  5 0.4 0  5.333333333333333 0.4 0  5.666666666666667 0.4 0  6 0.4 0  6.333333333333333 0.4 0  6.666666666666667 0.4 0  7 0.4 0  7.333333333333333 0.4 0  7.666666666666667 0.4 0  8 0.4 0  8.333333333333334 0.4 0  8.666666666666666 0.4 0  9 0.4 0  9.333333333333334 0.4 0  9.666666666666666 0.4 0  10 0.4 0  0 0.6 0  0.3333333333333333 0.6 0  0.6666666666666666 0.6 0  1 0.6 0  1.333333333333333 0.6 0  1.666666666666667 0.6 0  2 0.6 0  2.333333333333333 0.6 0  2.666666666666667 0.6 0  3 0.6 0  3.333333333333333 0.6 0  3.666666666666667 0.6 0  4 0.6 0  4.333333333333333 0.6 0  4.666666666666667 0.6 0  5 0.6 0  5.333333333333333 0.6 0  5.666666666666667 0.6 0  6 0.6 0  6.333333333333333 0.6 0  6.666666666666667 0.6 0  7 0.6 0  7.333333333333333 0.6 0  7.666666666666667 0.6 0  8 0.6 0  8.333333333333334 0.6 0  8.666666666666666 0.6 0  9 0.6 0  9.333333333333334 0.6 0  9.666666666666666 0.6 0  10 0.6 0  0 0.8 0  0.3333333333333333 0.8 0  0.6666666666666666 0.8 0  1 0.8 0  1.333333333333333 0.8 0  1.666666666666667 0.8 0  2 0.8 0  2.333333333333333 0.8 0  2.666666666666667 0.8 0  3 0.8 0  3.333333333333333 0.8 0  3.666666666666667 0.8 0  4 0.8 0  4.333333333333333 0.8 0  4.666666666666667 0.8 0  5 0.8 0  5.333333333333333 0.8 0  5.666666666666667 0.8 0  6 0.8 0  6.333333333333333 0.8 0  6.666666666666667 0.8 0  7 0.8 0  7.333333333333333 0.8 0  7.666666666666667 0.8 0  8 0.8 0  8.333333333333334 0.8 0  8.666666666666666 0.8 0  9 0.8 0  9.333333333333334 0.8 0  9.666666666666666 0.8 0  10 0.8 0  0 1 0  0.3333333333333333 1 0  0.6666666666666666 1 0  1 1 0  1.333333333333333 1 0  1.666666666666667 1 0  2 1 0  2.333333333333333 1 0  2.666666666666667 1 0  3 1 0  3.333333333333333 1 0  3.666666666666667 1 0  4 1 0  4.333333333333333 1 0  4.666666666666667 1 0  5 1 0  5.333333333333333 1 0  5.666666666666667 1 0  6 1 0  6.333333333333333 1 0  6.666666666666667 1 0  7 1 0  7.333333333333333 1 0  7.666666666666667 1 0  8 1 0  8.333333333333334 1 0  8.666666666666666 1 0  9 1 0  9.333333333333334 1 0  9.666666666666666 1 0  10 1 0  0 1.2 0  0.3333333333333333 1.2 0  0.6666666666666666 1.2 0  1 1.2 0  1.333333333333333 1.2 0  1.666666666666667 1.2 0  2 1.2 0  2.333333333333333 1.2 0  2.666666666666667 1.2 0  3 1.2 0  3.333333333333333 1.2 0  3.666666666666667 1.2 0  4 1.2 0  4.333333333333333 1.2 0  4.666666666666667 1.2 0  5 1.2 0  5.333333333333333 1.2 0  5.666666666666667 1.2 0  6 1.2 0  6.333333333333333 1.2 0  6.666666666666667 1.2 0  7 1.2 0  7.333333333333333 1.2 0  7.666666666666667 1.2 0  8 1.2 0  8.333333333333334 1.2 0  8.666666666666666 1.2 0  9 1.2 0  9.333333333333334 1.2 0  9.666666666666666 1.2 0  10 1.2 0  0 1.4 0  0.3333333333333333 1.4 0  0.6666666666666666 1.4 0  1 1.4 0  1.333333333333333 1.4 0  1.666666666666667 1.4 0  2 1.4 0  2.333333333333333 1.4 0  2.666666666666667 1.4 0  3 1.4 0  3.333333333333333 1.4 0  3.666666666666667 1.4 0  4 1.4 0  4.333333333333333 1.4 0  4.666666666666667 1.4 0  5 1.4 0  5.333333333333333 1.4 0  5.666666666666667 1.4 0  6 1.4 0  6.333333333333333 1.4 0  6.666666666666667 1.4 0  7 1.4 0  7.333333333333333 1.4 0  7.666666666666667 1.4 0  8 1.4 0  8.333333333333334 1.4 0  8.666666666666666 1.4 0  9 1.4 0  9.333333333333334 1.4 0  9.666666666666666 1.4 0  10 1.4 0  0 1.6 0  0.3333333333333333 1.6 0  0.6666666666666666 1.6 0  1 1.6 0  1.333333333333333 1.6 0  1.666666666666667 1.6 0  2 1.6 0  2.333333333333333 1.6 0  2.666666666666667 1.6 0  3 1.6 0  3.333333333333333 1.6 0  3.666666666666667 1.6 0  4 1.6 0  4.333333333333333 1.6 0  4.666666666666667 1.6 0  5 1.6 0  5.333333333333333 1.6 0  5.666666666666667 1.6 0  6 1.6 0  6.333333333333333 1.6 0  6.666666666666667 1.6 0  7 1.6 0  7.333333333333333 1.6 0  7.666666666666667 1.6 0  8 1.6 0  8.333333333333334 1.6 0  8.666666666666666 1.6 0  9 1.6 0  9.333333333333334 1.6 0  9.666666666666666 1.6 0  10 1.6 0  0 1.8 0  0.3333333333333333 1.8 0  0.6666666666666666 1.8 0  1 1.8 0  1.333333333333333 1.8 0  1.666666666666667 1.8 0  2 1.8 0  2.333333333333333 1.8 0  2.666666666666667 1.8 0  3 1.8 0  3.333333333333333 1.8 0  3.666666666666667 1.8 0  4 1.8 0  4.333333333333333 1.8 0  4.666666666666667 1.8 0  5 1.8 0  5.333333333333333 1.8 0  5.666666666666667 1.8 0  6 1.8 0  6.333333333333333 1.8 0  6.666666666666667 1.8 0  7 1.8 0  7.333333333333333 1.8 0  7.666666666666667 1.8 0  8 1.8 0  8.333333333333334 1.8 0  8.666666666666666 1.8 0  9 1.8 0  9.333333333333334 1.8 0  9.666666666666666 1.8 0  10 1.8 0  0 2 0  0.3333333333333333 2 0  0.6666666666666666 2 0  1 2 0  1.333333333333333 2 0  1.666666666666667 2 0  2 2 0  2.333333333333333 2 0  2.666666666666667 2 0  3 2 0  3.333333333333333 2 0  3.666666666666667 2 0  4 2 0  4.333333333333333 2 0  4.666666666666667 2 0  5 2 0  5.333333333333333 2 0  5.666666666666667 2 0  6 2 0  6.333333333333333 2 0  6.666666666666667 2 0  7 2 0  7.333333333333333 2 0  7.666666666666667 2 0  8 2 0  8.333333333333334 2 0  8.666666666666666 2 0  9 2 0  9.333333333333334 2 0  9.666666666666666 2 0  10 2 0  0 2.2 0  0.3333333333333333 2.2 0  0.6666666666666666 2.2 0  1 2.2 0  1.333333333333333 2.2 0  1.666666666666667 2.2 0  2 2.2 0  2.333333333333333 2.2 0  2.666666666666667 2.2 0  3 2.2 0  3.333333333333333 2.2 0  3.666666666666667 2.2 0  4 2.2 0  4.333333333333333 2.2 0  4.666666666666667 2.2 0  5 2.2 0  5.333333333333333 2.2 0  5.666666666666667 2.2 0  6 2.2 0  6.333333333333333 2.2 0  6.666666666666667 2.2 0  7 2.2 0  7.333333333333333 2.2 0  7.666666666666667 2.2 0  8 2.2 0  8.333333333333334 2.2 0  8.666666666666666 2.2 0  9 2.2 0  9.333333333333334 2.2 0  9.666666666666666 2.2 0  10 2.2 0  0 2.4 0  0.3333333333333333 2.4 0  0.6666666666666666 2.4 0  1 2.4 0  1.333333333333333 2.4 0  1.666666666666667 2.4 0  2 2.4 0  2.333333333333333 2.4 0  2.666666666666667 2.4 0  3 2.4 0  3.333333333333333 2.4 0  3.666666666666667 2.4 0  4 2.4 0  4.333333333333333 2.4 0  4.666666666666667 2.4 0  5 2.4 0  5.333333333333333 2.4 0  5.666666666666667 2.4 0  6 2.4 0  6.333333333333333 2.4 0  6.666666666666667 2.4 0  7 2.4 0  7.333333333333333 2.4 0  7.666666666666667 2.4 0  8 2.4 0  8.333333333333334 2.4 0  8.666666666666666 2.4 0  9 2.4 0  9.333333333333334 2.4 0  9.666666666666666 2.4 0  10 2.4 0  0 2.6 0  0.3333333333333333 2.6 0  0.6666666666666666 2.6 0  1 2.6 0  1.333333333333333 2.6 0  1.666666666666667 2.6 0  2 2.6 0  2.333333333333333 2.6 0  2.666666666666667 2.6 0  3 2.6 0  3.333333333333333 2.6 0  3.666666666666667 2.6 0  4 2.6 0  4.333333333333333 2.6 0  4.666666666666667 2.6 0  5 2.6 0  5.333333333333333 2.6 0  5.666666666666667 2.6 0  6 2.6 0  6.333333333333333 2.6 0  6.666666666666667 2.6 0  7 2.6 0  7.333333333333333 2.6 0  7.666666666666667 2.6 0  8 2.6 0  8.333333333333334 2.6 0  8.666666666666666 2.6 0  9 2.6 0  9.333333333333334 2.6 0  9.666666666666666 2.6 0  10 2.6 0  0 2.8 0  0.3333333333333333 2.8 0  0.6666666666666666 2.8 0  1 2.8 0  1.333333333333333 2.8 0  1.666666666666667 2.8 0  2 2.8 0  2.333333333333333 2.8 0  2.666666666666667 2.8 0  3 2.8 0  3.333333333333333 2.8 0  3.666666666666667 2.8 0  4 2.8 0  4.333333333333333 2.8 0  4.666666666666667 2.8 0  5 2.8 0  5.333333333333333 2.8 0  5.666666666666667 2.8 0  6 2.8 0  6.333333333333333 2.8 0  6.666666666666667 2.8 0  7 2.8 0  7.333333333333333 2.8 0  7.666666666666667 2.8 0  8 2.8 0  8.333333333333334 2.8 0  8.666666666666666 2.8 0  9 2.8 0  9.333333333333334 2.8 0  9.666666666666666 2.8 0  10 2.8 0  0 3 0  0.3333333333333333 3 0  0.6666666666666666 3 0  1 3 0  1.333333333333333 3 0  1.666666666666667 3 0  2 3 0  2.333333333333333 3 0  2.666666666666667 3 0  3 3 0  3.333333333333333 3 0  3.666666666666667 3 0  4 3 0  4.333333333333333 3 0  4.666666666666667 3 0  5 3 0  5.333333333333333 3 0  5.666666666666667 3 0  6 3 0  6.333333333333333 3 0  6.666666666666667 3 0  7 3 0  7.333333333333333 3 0  7.666666666666667 3 0  8 3 0  8.333333333333334 3 0  8.666666666666666 3 0  9 3 0  9.333333333333334 3 0  9.666666666666666 3 0  10 3 0  0 0 0.1  0.3333333333333333 0 0.1  0.6666666666666666 0 0.1  1 0 0.1  1.333333333333333 0 0.1  1.666666666666667 0 0.1  2 0 0.1  2.333333333333333 0 0.1  2.666666666666667 0 0.1  3 0 0.1  3.333333333333333 0 0.1  3.666666666666667 0 0.1  4 0 0.1  4.333333333333333 0 0.1  4.666666666666667 0 0.1  5 0 0.1  5.333333333333333 0 0.1  5.666666666666667 0 0.1  6 0 0.1  6.333333333333333 0 0.1  6.666
[...]
<PointData  Vectors="f_7-0"> 
<DataArray  type="Float64"  Name="f_7-0"  NumberOfComponents="3" format="ascii">0.0000000000000000e+00 0.0000000000000000e+00 0.0000000000000000e+00  3.9975583349400184e-02 3.8246423143242100e-02 3.9359612514693202e-03  7.2578436405325103e-02 6.6698083326099319e-02 4.2247247154864748e-03  1.0209274531880658e-01 8.9919350238408816e-02 3.9854381147135694e-03  1.3080636506877200e-01 1.1025511403219197e-01 3.8461941744031992e-03  1.5965232274933464e-01 1.2791828422080931e-01 3.7749095555974378e-03  1.8946746150338997e-01 1.4263256621060447e-01 3.7289043716005965e-03  2.2155603888267034e-01 1.5343502110631282e-01 3.7610555486939519e-03  2.5742232473165266e-01 1.5938543293187796e-01 3.7793454702378959e-03  2.9739632588076520e-01 1.6083986122791774e-01 3.7006693426284189e-03  3.4026362470434063e-01 1.5956889925847265e-01 3.5845439027558856e-03  3.8438008596272089e-01 1.5749481186465419e-01 3.5140616077591557e-03  4.2863820011925435e-01 1.5572050565836204e-01 3.5016952168244676e-03  4.7256997338605228e-01 1.5458199527178001e-01 3.5196607582188523e-03  5.1606726380757206e-01 1.5405239867465964e-01 3.5439537718782435e-03  5.5917228462026158e-01 1.5398587644413647e-01 3.5640671372635202e-03  6.0198766016482019e-01 1.5420905862415535e-01 3.5775450664660871e-03  6.4463252824163764e-01 1.5456286119031873e-01 3.5849781779524656e-03  6.8721135391696342e-01 1.5492892632113095e-01 3.5878058744913842e-03  7.2979564385061002e-01 1.5523943000616361e-01 3.5876220954205672e-03  7.7242143901326443e-01 1.5547022050173628e-01 3.5859033029609932e-03  8.1509777686698370e-01 1.5562531740967284e-01 3.5837914265012317e-03  8.5781820105862905e-01 1.5572171701751958e-01 3.5819762749889059e-03  9.0057014007616720e-01 1.5577890503251876e-01 3.5807349862656420e-03  9.4334075020901953e-01 1.5581329457133716e-01 3.5800681988945927e-03  9.8611979015481632e-01 1.5583618631891652e-01 3.5798420101500954e-03  1.0289005040481456e+00 1.5585383775125580e-01 3.5798879509978949e-03  1.0716793431985214e+00 1.5586860348022541e-01 3.5800579346688668e-03  1.1144551597574746e+00 1.5588043017273412e-01 3.5802454917839353e-03  1.1572283194781035e+00 1.5588824554871605e-01 3.5803723859939313e-03  1.2000000000000002e+00 1.5589100941354897e-01 3.5804008704485618e-03  0.0000000000000000e+00 0.0000000000000000e+00 0.0000000000000000e+00  2.2520736738198429e-02 1.9163031699808052e-02 5.2700723051469882e-03  5.9516249153889700e-02 5.1973708923516306e-02 4.4771882039874927e-03  9.0847355569738983e-02 7.6457767216634609e-02 4.0416316336148077e-03  1.2098106733983494e-01 9.7071829582068114e-02 3.9794309220591477e-03  1.5127891579928018e-01 1.1458796735615635e-01 3.8969313647336627e-03  1.8296603474885650e-01 1.2856114128003762e-01 3.8932683147711619e-03  2.1757747094007818e-01 1.3780745805714786e-01 3.8705926405347450e-03  2.5604000920346154e-01 1.4173396797075322e-01 3.7489083792907546e-03  2.9776718232684574e-01 1.4153392841889817e-01 3.5910779717026843e-03  3.4128908247713691e-01 1.3943527711017248e-01 3.5025619121502117e-03  3.8535407463204496e-01 1.3719112804480896e-01 3.4902245795833272e-03  4.2930885830670357e-01 1.3555440599718652e-01 3.5092723837221247e-03  4.7292123596267954e-01 1.3463943245539881e-01 3.5345002977857994e-03  5.1616252002735341e-01 1.3432337434985842e-01 3.5576664531775403e-03  5.5909617218632957e-01 1.3442144400905559e-01 3.5750932434766482e-03  6.0182339582787792e-01 1.3474735020109208e-01 3.5855314525493195e-03  6.4444676928718336e-01 1.3514667454092219e-01 3.5897850659015454e-03  6.8704599339970962e-01 1.3551687301661727e-01 3.5897984869378420e-03  7.2966870515819604e-01 1.3580885747246771e-01 3.5876589623038096e-03  7.7233413973605503e-01 1.3601370542095514e-01 3.5849474878287971e-03  8.1504271154567121e-01 1.3614477782604728e-01 3.5825692478494747e-03  8.5778547331334210e-01 1.3622321380245281e-01 3.5808871196961202e-03  9.0055083455007001e-01 1.3626921041431114e-01 3.5799267327925404e-03  9.4332838070572433e-01 1.3629808573980506e-01 3.5795435099396410e-03  9.8611050369606268e-01 1.3631938396929341e-01 3.5795370305302427e-03  1.0288926214197576e+00 1.3633764310490226e-01 3.5797212383405197e-03  1.0716726350162022e+00 1.3635388278507854e-01 3.5799590164030492e-03  1.1144501215066207e+00 1.3636718621025143e-01 3.5801652712328749e-03  1.1572255956434578e+00 1.3637601166869906e-01 3.5802973071972261e-03  1.2000000000000002e+00 1.3637909460141853e-01 3.5803470636056925e-03  0.0000000000000000e+00 0.0000000000000000e+00 0.0000000000000000e+00  1.2006266105378771e-02 7.2429134121065287e-03 7.3237109622379046e-03  4.5838601081982712e-02 3.6235224584078116e-02 4.4910300945267753e-03  7.9496202064122348e-02 6.2300802458289013e-02 4.3626732113019717e-03  1.1120322578500696e-01 8.3310949730568379e-02 4.1115726444848170e-03  1.4308999164440417e-01 1.0054228564644328e-01 4.0815968568672697e-03  1.7690178342794938e-01 1.1344044251957344e-01 4.0677978393916792e-03  2.1423822822554314e-01 1.2084579308232986e-01 3.8920701911109804e-03  2.5520965902206683e-01 1.2293537992379303e-01 3.5945720007840029e-03  2.9842384301263830e-01 1.2163206923497452e-01 3.4034807778939580e-03  3.4238167231338335e-01 1.1919228061967639e-01 3.3943102794959583e-03  3.8629366495458334e-01 1.1700712814499424e-01 3.4590046445393628e-03  4.2991597131463577e-01 1.1555787023373071e-01 3.5146931106883341e-03  4.7320907745551910e-01 1.1484622055657567e-01 3.5513632504794277e-03  5.1620681561960247e-01 1.1470304981553053e-01 3.5761366644425441e-03  5.5898674447092633e-01 1.1492141852545297e-01 3.5913545120816429e-03  6.0164319743097283e-01 1.1531109406720642e-01 3.5975857151047189e-03  6.4425825139479254e-01 1.1572833911402558e-01 3.5969099607595974e-03  6.8688543203092167e-01 1.1608805196879815e-01 3.5926100913339751e-03  7.2954932545242768e-01 1.1635740758360595e-01 3.5875837736322434e-03  7.7225412311515451e-01 1.1653851060663885e-01 3.5834564809617731e-03  8.1499324288245423e-01 1.1665033367590841e-01 3.5807211183991479e-03  8.5775633739571100e-01 1.1671576338075834e-01 3.5792603094136175e-03  9.0053338548766704e-01 1.1675452965841160e-01 3.5787409245638044e-03  9.4331663505101926e-01 1.1678049205447778e-01 3.5788041122219597e-03  9.8610112302004371e-01 1.1680154298496130e-01 3.5791456288040641e-03  1.0288843361677231e+00 1.1682082962487478e-01 3.5795501446248489e-03  1.0716654838585979e+00 1.1683842162602355e-01 3.5798961276319115e-03  1.1144447447211858e+00 1.1685287618745864e-01 3.5801366315534478e-03  1.1572226992201937e+00 1.1686242729322686e-01 3.5802743372172208e-03  1.2000000000000002e+00 1.1686576159142238e-01 3.5803191655344037e-03  0.0000000000000000e+00 0.0000000000000000e+00 0.0000000000000000e+00  1.0410418872554769e-02 4.7105504606313967e-03 6.8668195007192791e-03  3.2642150534222286e-02 2.0147513926492448e-02 6.6629480791912526e-03  6.8024777808265449e-02 4.7556382535988123e-02 4.5011655792388996e-03  1.0147072575506627e-01 6.8962516565068840e-02 4.3925188891139610e-03  1.3515082623188129e-01 8.5734666134476806e-02 4.3236812599442972e-03  1.7147311029625031e-01 9.7123102070493475e-02 4.1798997451850568e-03  2.1169434439764279e-01 1.0247864326253375e-01 3.7715246921405025e-03  2.5490523525548242e-01 1.0305917298404402e-01 3.3503747761347599e-03  2.9923141574863760e-01 1.0122861988405103e-01 3.2078350134560714e-03  3.4342541545474176e-01 9.8877182340996295e-02 3.2938291793684123e-03  3.8714482102167885e-01 9.6942339176577144e-02 3.4226292289611590e-03  4.3044599228397140e-01 9.5725191035473930e-02 3.5134018225156907e-03  4.7343621017929843e-01 9.5198753569901803e-02 3.5669062312173581e-03  5.1620829449574956e-01 9.5188219267576479e-02 3.5969390517892308e-03  5.5885373086040824e-01 9.5482353443837695e-02 3.6105863060476901e-03  6.0145613125727948e-01 9.5897308394976233e-02 3.6116953701423662e-03  6.4407370550326848e-01 9.6306019559491501e-02 3.6049985095143295e-03  6.8673345136360642e-01 9.6641803624673173e-02 3.5956738118898472e-03  7.2943878651534411e-01 9.6885174826251919e-02 3.5874000284343848e-03  7.7218110558693753e-01 9.7045041049608524e-02 3.5816941960731237e-03  8.1494839020888454e-01 9.7142431678755428e-02 3.5785561511568033e-03  8.5772969433683177e-01 9.7199736564752240e-02 3.5773514616419949e-03  9.0051687763480992e-01 9.7235120736836378e-02 3.5773510980973183e-03  9.4330489058716460e-01 9.7260661308390006e-02 3.5779449547612137e-03  9.8609130985448712e-01 9.7282724236931156e-02 3.5787012639441249e-03  1.0288755255915600e+00 9.7303402142602288e-02 3.5793680274625326e-03  1.0716578943902915e+00 9.7322196051958840e-02 3.5798434200758188e-03  1.1144390790329612e+00 9.7337465150848429e-02 3.5801275227838034e-03  1.1572196590743686e+00 9.7347458961117864e-02 3.5802687398754467e-03  1.2000000000000002e+00 9.7350936400004806e-02 3.5803063634940414e-03  0.0000000000000000e+00 0.0000000000000000e+00 0.0000000000000000e+00  1.0380915575700195e-02 3.9138664828015949e-03 6.1428779608942163e-03  2.5712463431274379e-02 1.0725600992937609e-02 7.7152627292857998e-03  5.6468630355983478e-02 3.2088895941608839e-02 5.4818586921806150e-03  9.1833901822134217e-02 5.4077834137621891e-02 4.8139297135429355e-03  1.2766818569683536e-01 7.0013668914280527e-02 4.5770652284662823e-03  1.6694814739327288e-01 7.9391571031752428e-02 4.1575185468810966e-03  2.1000275699301085e-01 8.2718822252117283e-02 3.5086997029166317e-03  2.5498864952744171e-01 8.2299816084551405e-02 3.0852016621004748e-03  3.0002194343110450e-01 8.0473085792560753e-02 3.0520108667777962e-03  3.4431221658948846e-01 7.8521666270865417e-02 3.2121168767222565e-03  3.8785542168239495e-01 7.6978179189620327e-02 3.3827471766919742e-03  4.3088097665043468e-01 7.6037837575181177e-02 3.5059753349507925e-03  4.7360304316058238e-01 7.5685908588860026e-02 3.5804698202530801e-03  5.1617603606101203e-01 7.5770702442560775e-02 3.6184090759780671e-03  5.5870911035811666e-01 7.6097354907672235e-02 3.6305974136654549e-03  6.0127319727190798e-01 7.6501266751762775e-02 3.6258544609956709e-03  6.4390092752390882e-01 7.6877732344914032e-02 3.6127552516930219e-03  6.8659421040573787e-01 7.7178254924712392e-02 3.5984392995783124e-03  7.2933838505512261e-01 7.7393270065189798e-02 3.5870468316975229e-03  7.7211465716885086e-01 7.7534547235625417e-02 3.5798281906147776e-03  8.1490696554108333e-01 7.7622077595100036e-02 3.5763064136084825e-03  8.5770424005864920e-01 7.7675803147596020e-02 3.5753736478193240e-03  9.0050023376010313e-01 7.7711349541711564e-02 3.5759154149532478e-03  9.4329242147533099e-01 7.7738730049509472e-02 3.5770614555857313e-03  9.8608067593614601e-01 7.7762920105357125e-02 3.5782453359006709e-03  1.0288660539121297e+00 7.7785285488258998e-02 3.5791787705732455e-03  1.0716498772130074e+00 7.7805118434465970e-02 3.5797842183994460e-03  1.1144331849248226e+00 7.7820883187867868e-02 3.5801105773694665e-03  1.1572165241612522e+00 7.7831052575531925e-02 3.5802524394768303e-03  1.2000000000000002e+00 7.7834567262010490e-02 3.5802860617594788e-03  0.0000000000000000e+00 0.0000000000000000e+00 0.0000000000000000e+00  9.9715247352786772e-03 2.8051297522226019e-03 6.0475478735503964e-03  2.3942410413353554e-02 6.7870377105284140e-03 7.3826606293435496e-03  4.7071546272716029e-02 1.8495359534764791e-02 7.1084723767304934e-03  8.2463282305123495e-02 3.8684570039727119e-02 5.3874319406954502e-03  1.2101379131917957e-01 5.3099464813119487e-02 4.8057344957662118e-03  1.6355002586798328e-01 6.0085478432428660e-02 3.9427939751963985e-03  2.0907498341120140e-01 6.1721636991035715e-02 3.1652309210687753e-03  2.5525692685895557e-01 6.0923603951289020e-02 2.8688596077074027e-03  3.0065686889774662e-01 5.9508351654699143e-02 2.9523660916058541e-03  3.4497015951057325e-01 5.8143139507286550e-02 3.1513877390413909e-03  3.8838241844936111e-01 5.7086463173334379e-02 3.3452400164442537e-03  4.3119843974345740e-01 5.6467434113198392e-02 3.4955238341662568e-03  4.7370564395946752e-01 5.6288327906956814e-02 3.5913048385309643e-03  5.1611788217070764e-01 5.6436868219770009e-02 3.6380065637328747e-03  5.5856485371006159e-01 5.6756702344203734e-02 3.6486695533887040e-03  6.0110517955094644e-01 5.7117570282070540e-02 3.6380688634023912e-03  6.4374723079956153e-01 5.7442142626800523e-02 3.6191099074513425e-03  6.8647150149173297e-01 5.7698639752845900e-02 3.6005252888779682e-03  7.2924930879386429e-01 5.7883835337868839e-02 3.5865346450394721e-03  7.7205440010873849e-01 5.8009028099308038e-02 3.5780516985436227e-03  8.1486787163375296e-01 5.8090718966961913e-02 3.5742170603804344e-03  8.5767874346614126e-01 5.8144823543957676e-02 3.5735455247239995e-03  9.0048242412706703e-01 5.8183602777790729e-02 3.5745893506102197e-03  9.4327852966914050e-01 5.8214764637813804e-02 3.5762408608284823e-03  9.8606884614057821e-01 5.8242023735201147e-02 3.5778104800057767e-03  1.0288557872921145e+00 5.8266315777356213e-02 3.5789802803619236e-03  1.0716414374806489e+00 5.8287041913870206e-02 3.5796986448541433e-03  1.1144271179576040e+00 5.8303029803181999e-02 3.5800595261074992e-03  1.1572133408552636e+00 5.8313145378950305e-02 3.5802007211340695e-03  1.2000000000000002e+00 5.8316608630193036e-02 3.5802321622951236e-03  0.0000000000000000e+00 0.0000000000000000e+00 0.0000000000000000e+00  9.6894926079453391e-03 1.7120622907783678e-03 5.9396719037573100e-03  2.3458811573902328e-02 4.2844097503639848e-03 7.0170849061973132e-03  4.2115138685107092e-02 9.6679055360648931e-03 7.8793924220795647e-03  7.4174207952860435e-02 2.3078504827937850e-02 6.5886410758839295e-03  1.1567389565123899e-01 3.4725702919481030e-02 4.8532658217787334e-03  1.6134517099412457e-01 3.9219676209094563e-02 3.5742913075679484e-03  2.0868369781565294e-01 3.9794438390839078e-02 2.8475234207284246e-03  2.5550261380881778e-01 3.9194489075893346e-02 2.7413207316777832e-03  3.0104866489579524e-01 3.8435271606855420e-02 2.9001594478193370e-03  3.4536093358443498e-01 3.7748333500467413e-02 3.1109033277041606e-03  3.8869383436671712e-01 3.7238627841871035e-02 3.3165640748122616e-03  4.3137512798106736e-01 3.6979563546701802e-02 3.4858956415153072e-03  4.7373712174352950e-01 3.6977771469362243e-02 3.5987230953456050e-03  5.1604004139224580e-01 3.7166533978793291e-02 3.6527336082404884e-03  5.5843179770972873e-01 3.7447890007695994e-02 3.6619962462407104e-03  6.0096149380203878e-01 3.7740698962339364e-02 3.6466832002486362e-03  6.4361866116674882e-01 3.7998896619762537e-02 3.6233618486554097e-03  6.8636835850879085e-01 3.8205322613271850e-02 3.6017529958888073e-03  7.2917250312884208e-01 3.8359950110950967e-02 3.5859394212529503e-03  7.7200001844661781e-01 3.8471147868749833e-02 3.5765613071819112e-03  8.1483018168672272e-01 3.8550194728660760e-02 3.5725154997719413e-03  8.5765214694674907e-01 3.8607816773310322e-02 3.5720611774877693e-03  9.0046255596170155e-01 3.8652265269741026e-02 3.5735029175004915e-03  9.4326260816097496e-01 3.8688747332371452e-02 3.5755488530264615e-03  9.8605549341094545e-01 3.8719824101564750e-02 3.5774150023717660e-03  1.0288446065309105e+00 3.8746242374916202e-02 3.5787638013951976e-03  1.0716325752308979e+00 3.8767763839209914e-02 3.5795661590604937e-03  1.1144209230887170e+00 3.8783777480056091e-02 3.5799522145732662e-03  1.1572101460567950e+00 3.8793671141866833e-02 3.5800934384157277e-03  1.2000000000000002e+00 3.8797019294178357e-02 3.5801241405694567e-03  0.0000000000000000e+00 0.0000000000000000e+00 0.0000000000000000e+00  9.5699152114648127e-03 6.6726193374411994e-04 5.8352724212326623e-03  2.2991284719761015e-02 1.8768617339237914e-03 6.9066684656880874e-03  4.0389764644978780e-02 4.2328016146462198e-03 7.9126087453973357e-03  6.9099450460486198e-02 8.7333850736755377e-03 7.7432193466022989e-03  1.1212122371628713e-01 1.4837293605105533e-02 4.8102073330560874e-03  1.6020316972676188e-01 1.7078363303841122e-02 3.1913293549644798e-03  2.0853690261578298e-01 1.7328459065094080e-02 2.6533645052955039e-03  2.5557501121065546e-01 1.7310963475145474e-02 2.6987044933331405e-03  3.0115726087554590e-01 1.7313262419587847e-02 2.8797629280968456e-03  3.4546790277963085e-01 1.7341709301857938e-02 3.0913716800614155e-03  3.8876900846043477e-01 1.7411234526716758e-02 3.3019731866296186e-03  4.3139232768148167e-01 1.7537349091839669e-02 3.4806881569456188e-03  4.7369053588244020e-01 1.7717974052439148e-02 3.6022816532920131e-03  5.1594673249077316e-01 1.7932978297044617e-02 3.6599199916311099e-03  5.5831811871369064e-01 1.8155968262590721e-02 3.6683080181455266e-03  6.0084899860681673e-01 1.8365311034049508e-02 3.6505854690535252e-03  6.4351941975469873e-01 1.8548585368543848e-02 3.6251354916971702e-03  6.8628683523376555e-01 1.8701573436009911e-02 3.6020569401038925e-03  7.2910859816101659e-01 1.8825412551049560e-02 3.5853367185213494e-03  7.7195126534485303e-01 1.8924096411897958e-02 3.5755094188536347e-03  8.1479320099245467e-01 1.9002666678169338e-02 3.5713752167747777e-03  8.5762365049607070e-01 1.9065935659634596e-02 3.5710664340756295e-03  9.0043994956886952e-01 1.9117718544217243e-02 3.5727501255503344e-03  9.4324419292690875e-01 1.9160587031364040e-02 3.5750292375619983e-03  9.8604036488132163e-01 1.9196021455841733e-02 3.5770678040181721e-03  1.0288324148176287e+00 1.9224742284640457e-02 3.5785201220130086e-03  1.0716232834418675e+00 1.9247035449666036e-02 3.5793712775686625e-03  1.1144146279844580e+00 1.9262977704602113e-02 3.5797735777238992e-03  1.1572069631785880e+00 1.9272561130087851e-02 3.5799171571832592e-03  1.2000000000000002e+00 1.9275760674900128e-02 3.5799487925300493e-03  0.0000000000000000e+00 0.0000000000000000e+00 0.0000000000000000e+00  9.5816504870599815e-03 -3.6568809371446590e-04 5.7633227730661003e-03  2.2543460673190321e-02 -2.4401422745808429e-04 6.9151916703766537e-03  4.0147290314818881e-02 -6.3674480958127578e-04 7.8981612955701368e-03  6.8636655922817855e-02 -4.0293985884836151e-03 7.9194833538000688e-03  1.1097568881682193e-01 -5.9017885823816211e-03 4.9335869944895821e-03  1.5986250721281089e-01 -5.7663078735182430e-03 2.9693044035929007e-03  2.0839471373645641e-01 -5.3159001832608823e-03 2.6299941004980332e-03  2.5540414677848028e-01 -4.6046820094456410e-03 2.7105523979111747e-03  3.0097175587472935e-01 -3.8215638311624306e-03 2.8840515584395384e-03  3.4528572230279303e-01 -3.0709699287720348e-03 3.0941762429567764e-03  3.8859840955260871e-01 -2.4142551058996807e-03 3.3040985406347211e-03  4.3124054271679979e-01 -1.8966632693009978e-03 3.4817827595562826e-03  4.7356206922740185e-01 -1.5327194674417365e-03 3.6015875583921011e-03  5.1583992414586111e-01 -1.2951838893935090e-03 3.6580334408107436e-03  5.5822785093400662e-01 -1.1356218206478089e-03 3.6664460819647942e-03  6.0077103047199798e-01 -1.0137046328286422e-03 3.6492835216703147e-03  6.4345151606158313e-01 -9.0755674295184068e-04 3.6242842904101649e-03  6.8622790338369200e-01 -8.0877649632661965e-04 3.6014165655667628e-03  7.2905786855146293e-01 -7.1553340007786935e-04 3.5847712807049932e-03  7.7190796333264100e-01 -6.2859588164012519e-04 3.5749830242241465e-03  8.1475650864445437e-01 -5.4948634364430872e-04 3.5708951900128927e-03  8.5759277466349626e-01 -4.7957656971975407e-04 3.5706432058256257e-03  9.0041419611110562e-01 -4.1966082444068378e-04 3.5723818390732678e-03  9.4322300095979539e-01 -3.6986029289952865e-04 3.5747040739448933e-03  9.8602329959889645e-01 -3.2974587181333891e-04 3.5767721854960003e-03  1.0288191414890735e+00 -2.9855736695300620e-04 3.5782437630453873e-03  1.0716135450097766e+00 -2.7542287549603401e-04 3.5791069113018229e-03  1.1144082378084297e+00 -2.5953160641085352e-04 3.5795172953359275e-03  1.1572037994021267e+00 -2.5025567899450446e-04 3.5796665171811165e-03  1.2000000000000002e+00 -2.4720468779348894e-04 3.5797011354210396e-03  0.0000000000000000e+00 0.0000000000000000e+00 0.0000000000000000e+00  9.6195242941055099e-03 -1.3089823167124880e-03 5.6802003409328920e-03  2.2136233275580473e-02 -2.1399245615310006e-03 7.1088968318656302e-03  4.1557542202452280e-02 -6.6874600537244694e-03 7.8173837003183699e-03  7.2232578206500656e-02 -1.6864407290865708e-02 