<?xml version="1.0"?>
<VTKFile type="UnstructuredGrid"  version="0.1"  >
<UnstructuredGrid>
<Piece  NumberOfPoints="882" NumberOfCells="3600">
<Points>
<DataArray  type="Float64"  NumberOfComponents="3"  format="ascii">0 0 0  0.5 0 0  1 0 0  1.5 0 0  2 0 0  2.5 0 0  3 0 0  3.5 0 0  4 0 0  4.5 0 0  5 0 0  5.5 0 0  6 0 0  6.5 0 0  7 0 0  7.5 0 0  8 0 0  8.5 0 0  9 0 0  9.5 0 0  10 0 0  0 0.5 0  0.5 0.5 0  1 0.5 0  1.5 0.5 0  2 0.5 0  2.5 0.5 0  3 0.5 0  3.5 0.5 0  4 0.5 0  4.5 0.5 0  5 0.5 0  5.5 0.5 0  6 0.5 0  6.5 0.5 0  7 0.5 0  7.5 0.5 0  8 0.5 0  8.5 0.5 0  9 0.5 0  9.5 0.5 0  10 0.5 0  0 1 0  0.5 1 0  1 1 0  1.5 1 0  2 1 0  2.5 1 0  3 1 0  3.5 1 0  4 1 0  4.5 1 0  5 1 0  5.5 1 0  6 1 0  6.5 1 0  7 1 0  7.5 1 0  8 1 0  8.5 1 0  9 1 0  9.5 1 0  10 1 0  0 1.5 0  0.5 1.5 0  1 1.5 0  1.5 1.5 0  2 1.5 0  2.5 1.5 0  3 1.5 0  3.5 1.5 0  4 1.5 0  4.5 1.5 0  5 1.5 0  5.5 1.5 0  6 1.5 0  6.5 1.5 0  7 1.5 0  7.5 1.5 0  8 1.5 0  8.5 1.5 0  9 1.5 0  9.5 1.5 0  10 1.5 0  0 2 0  0.5 2 0  1 2 0  1.5 2 0  2 2 0  2.5 2 0  3 2 0  3.5 2 0  4 2 0  4.5 2 0  5 2 0  5.5 2 0  6 2 0  6.5 2 0  7 2 0  7.5 2 0  8 2 0  8.5 2 0  9 2 0  9.5 2 0  10 2 0  0 2.5 0  0.5 2.5 0  1 2.5 0  1.5 2.5 0  2 2.5 0  2.5 2.5 0  3 2.5 0  3.5 2.5 0  4 2.5 0  4.5 2.5 0  5 2.5 0  5.5 2.5 0  6 2.5 0  6.5 2.5 0  7 2.5 0  7.5 2.5 0  8 2.5 0  8.5 2.5 0  9 2.5 0  9.5 2.5 0  10 2.5 0  0 3 0  0.5 3 0  1 3 0  1.5 3 0  2 3 0  2.5 3 0  3 3 0  3.5 3 0  4 3 0  4.5 3 0  5 3 0  5.5 3 0  6 3 0  6.5 3 0  7 3 0  7.5 3 0  8 3 0  8.5 3 0  9 3 0  9.5 3 0  10 3 0  0 0 0.1  0.5 0 0.1  1 0 0.1  1.5 0 0.1  2 0 0.1  2.5 0 0.1  3 0 0.1  3.5 0 0.1  4 0 0.1  4.5 0 0.1  5 0 0.1  5.5 0 0.1  6 0 0.1  6.5 0 0.1  7 0 0.1  7.5 0 0.1  8 0 0.1  8.5 0 0.1  9 0 0.1  9.5 0 0.1  10 0 0.1  0 0.5 0.1  0.5 0.5 0.1  1 0.5 0.1  1.5 0.5 0.1  2 0.5 0.1  2.5 0.5 0.1  3 0.5 0.1  3.5 0.5 0.1  4 0.5 0.1  4.5 0.5 0.1  5 0.5 0.1  5.5 0.5 0.1  6 0.5 0.1  6.5 0.5 0.1  7 0.5 0.1  7.5 0.5 0.1  8 0.5 0.1  8.5 0.5 0.1  9 0.5 0.1  9.5 0.5 0.1  10 0.5 0.1  0 1 0.1  0.5 1 0.1  1 1 0.1  1.5 1 0.1  2 1 0.1  2.5 1 0.1  3 1 0.1  3.5 1 0.1  4 1 0.1  4.5 1 0.1  5 1 0.1  5.5 1 0.1  6 1 0.1  6.5 1 0.1  7 1 0.1  7.5 1 0.1  8 1 0.1  8.5 1 0.1  9 1 0.1  9.5 1 0.1  10 1 0.1  0 1.5 0.1  0.5 1.5 0.1  1 1.5 0.1  1.5 1.5 0.1  2 1.5 0.1  2.5 1.5 0.1  3 1.5 0.1  3.5 1.5 0.1  4 1.5 0.1  4.5 1.5 0.1  5 1.5 0.1  5.5 1.5 0.1  6 1.5 0.1  6.5 1.5 0.1  7 1.5 0.1  7.5 1.5 0.1  8 1.5 0.1  8.5 1.5 0.1  9 1.5 0.1  9.5 1.5 0.1  10 1.5 0.1  0 2 0.1  0.5 2 0.1  1 2 0.1  1.5 2 0.1  2 2 0.1  2.5 2 0.1  3 2 0.1  3.5 2 0.1  4 2 0.1  4.5 2 0.1  5 2 0.1  5.5 2 0.1  6 2 0.1  6.5 2 0.1  7 2 0.1  7.5 2 0.1  8 2 0.1  8.5 2 0.1  9 2 0.1  9.5 2 0.1  10 2 0.1  0 2.5 0.1  0.5 2.5 0.1  1 2.5 0.1  1.5 2.5 0.1  2 2.5 0.1  2.5 2.5 0.1  3 2.5 0.1  3.5 2.5 0.1  4 2.5 0.1  4.5 2.5 0.1  5 2.5 0.1  5.5 2.5 0.1  6 2.5 0.1  6.5 2.5 0.1  7 2.5 0.1  7.5 2.5 0.1  8 2.5 0.1  8.5 2.5 0.1  9 2.5 0.1  9.5 2.5 0.1  10 2.5 0.1  0 3 0.1  0.5 3 0.1  1 3 0.1  1.5 3 0.1  2 3 0.1  2.5 3 0.1  3 3 0.1  3.5 3 0.1  4 3 0.1  4.5 3 0.1  5 3 0.1  5.5 3 0.1  6 3 0.1  6.5 3 0.1  7 3 0.1  7.5 3 0.1  8 3 0.1  8.5 3 0.1  9 3 0.1  9.5 3 0.1  10 3 0.1  0 0 0.2  0.5 0 0.2  1 0 0.2  1.5 0 0.2  2 0 0.2  2.5 0 0.2  3 0 0.2  3.5 0 0.2  4 0 0.2  4.5 0 0.2  5 0 0.2  5.5 0 0.2  6 0 0.2  6.5 0 0.2  7 0 0.2  7.5 0 0.2  8 0 0.2  8.5 0 0.2  9 0 0.2  9.5 0 0.2  10 0 0.2  0 0.5 0.2  0.5 0.5 0.2  1 0.5 0.2  1.5 0.5 0.2  2 0.5 0.2  2.5 0.5 0.2  3 0.5 0.2  3.5 0.5 0.2  4 0.5 0.2  4.5 0.5 0.2  5 0.5 0.2  5.5 0.5 0.2  6 0.5 0.2  6.5 0.5 0.2  7 0.5 0.2  7.5 0.5 0.2  8 0.5 0.2  8.5 0.5 0.2  9 0.5 0.2  9.5 0.5 0.2  10 0.5 0.2  0 1 0.2  0.5 1 0.2  1 1 0.2  1.5 1 0.2  2 1 0.2  2.5 1 0.2  3 1 0.2  3.5 1 0.2  4 1 0.2  4.5 1 0.2  5 1 0.2  5.5 1 0.2  6 1 0.2  6.5 1 0.2  7 1 0.2  7.5 1 0.2  8 1 0.2  8.5 1 0.2  9 1 0.2  9.5 1 0.2  10 1 0.2  0 1.5 0.2  0.5 1.5 0.2  1 1.5 0.2  1.5 1.5 0.2  2 1.5 0.2  2.5 1.5 0.2  3 1.5 0.2  3.5 1.5 0.2  4 1.5 0.2  4.5 1.5 0.2  5 1.5 0.2  5.5 1.5 0.2  6 1.5 0.2  6.5 1.5 0.2  7 1.5 0.2  7.5 1.5 0.2  8 1.5 0.2  8.5 1.5 0.2  9 1.5 0.2  9.5 1.5 0.2  10 1.5 0.2  0 2 0.2  0.5 2 0.2  1 2 0.2  1.5 2 0.2  2 2 0.2  2.5 2 0.2  3 2 0.2  3.5 2 0.2  4 2 0.2  4.5 2 0.2  5 2 0.2  5.5 2 0.2  6 2 0.2  6.5 2 0.2  7 2 0.2  7.5 2 0.2  8 2 0.2  8.5 2 0.2  9 2 0.2  9.5 2 0.2  10 2 0.2  0 2.5 0.2  0.5 2.5 0.2  1 2.5 0.2  1.5 2.5 0.2  2 2.5 0.2  2.5 2.5 0.2  3 2.5 0.2  3.5 2.5 0.2  4 2.5 0.2  4.5 2.5 0.2  5 2.5 0.2  5.5 2.5 0.2  6 2.5 0.2  6.5 2.5 0.2  7 2.5 0.2  7.5 2.5 0.2  8 2.5 0.2  8.5 2.5 0.2  9 2.5 0.2  9.5 2.5 0.2  10 2.5 0.2  0 3 0.2  0.5 3 0.2  1 3 0.2  1.5 3 0.2  2 3 0.2  2.5 3 0.2  3 3 0.2  3.5 3 0.2  4 3 0.2  4.5 3 0.2  5 3 0.2  5.5 3 0.2  6 3 0.2  6.5 3 0.2  7 3 0.2  7.5 3 0.2  8 3 0.2  8.5 3 0.2  9 3 0.2  9.5 3 0.2  10 3 0.2  0 0 0.3  0.5 0 0.3  1 0 0.3  1.5 0 0.3  2 0 0.3  2.5 0 0.3  3 0 0.3  3.5 0 0.3  4 0 0.3  4.5 0 0.3  5 0 0.3  5.5 0 0.3  6 0 0.3  6.5 0 0.3  7 0 0.3  7.5 0 0.3  8 0 0.3  8.5 0 0.3  9 0 0.3  9.5 0 0.3  10 0 0.3  0 0.5 0.3  0.5 0.5 0.3  1 0.5 0.3  1.5 0.5 0.3  2 0.5 0.3  2.5 0.5 0.3  3 0.5 0.3  3.5 0.5 0.3  4 0.5 0.3  4.5 0.5 0.3  5 0.5 0.3  5.5 0.5 0.3  6 0.5 0.3  6.5 0.5 0.3  7 0.5 0.3  7.5 0.5 0.3  8 0.5 0.3  8.5 0.5 0.3  9 0.5 0.3  9.5 0.5 0.3  10 0.5 0.3  0 1 0.3  0.5 1 0.3  1 1 0.3  1.5 1 0.3  2 1 0.3  2.5 1 0.3  3 1 0.3  3.5 1 0.3  4 1 0.3  4.5 1 0.3  5 1 0.3  5.5 1 0.3  6 1 0.3  6.5 1 0.3  7 1 0.3  7.5 1 0.3  8 1 0.3  8.5 1 0.3  9 1 0.3  9.5 1 0.3  10 1 0.3  0 1.5 0.3  0.5 1.5 0.3  1 1.5 0.3  1.5 1.5 0.3  2 1.5 0.3  2.5 1.5 0.3  3 1.5 0.3  3.5 1.5 0.3  4 1.5 0.3  4.5 1.5 0.3  5 1.5 0.3  5.5 1.5 0.3  6 1.5 0.3  6.5 1.5 0.3  7 1.5 0.3  7.5 1.5 0.3  8 1.5 0.3  8.5 1.5 0.3  9 1.5 0.3  9.5 1.5 0.3  10 1.5 0.3  0 2 0.3  0.5 2 0.3  1 2 0.3  1.5 2 0.3  2 2 0.3  2.5 2 0.3  3 2 0.3  3.5 2 0.3  4 2 0.3  4.5 2 0.3  5 2 0.3  5.5 2 0.3  6 2 0.3  6.5 2 0.3  7 2 0.3  7.5 2 0.3  8 2 0.3  8.5 2 0.3  9 2 0.3  9.5 2 0.3  10 2 0.3  0 2.5 0.3  0.5 2.5 0.3  1 2.5 0.3  1.5 2.5 0.3  2 2.5 0.3  2.5 2.5 0.3  3 2.5 0.3  3.5 2.5 0.3  4 2.5 0.3  4.5 2.5 0.3  5 2.5 0.3  5.5 2.5 0.3  6 2.5 0.3  6.5 2.5 0.3  7 2.5 0.3  7.5 2.5 0.3  8 2.5 0.3  8.5 2.5 0.3  9 2.5 0.3  9.5 2.5 0.3  10 2.5 0.3  0 3 0.3  0.5 3 0.3  1 3 0.3  1.5 3 0.3  2 3 0.3  2.5 3 0.3  3 3 0.3  3.5 3 0.3  4 3 0.3  4.5 3 0.3  5 3 0.3  5.5 3 0.3  6 3 0.3  6.5 3 0.3  7 3 0.3  7.5 3 0.3  8 3 0.3  8.5 3 0.3  9 3 0.3  9.5 3 0.3  10 3 0.3  0 0 0.4  0.5 0 0.4  1 0 0.4  1.5 0 0.4  2 0 0.4  2.5 0 0.4  3 0 0.4  3.5 0 0.4  4 0 0.4  4.5 0 0.4  5 0 0.4  5.5 0 0.4  6 0 0.4  6.5 0 0.4  7 0 0.4  7.5 0 0.4  8 0 0.4  8.5 0 0.4  9 0 0.4  9.5 0 0.4  10 0 0.4  0 0.5 0.4  0.5 0.5 0.4  1 0.5 0.4  1.5 0.5 0.4  2 0.5 0.4  2.5 0.5 0.4  3 0.5 0.4  3.5 0.5 0.4  4 0.5 0.4  4.5 0.5 0.4  5 0.5 0.4  5.5 0.5 0.4  6 0.5 0.4  6.5 0.5 0.4  7 0.5 0.4  7.5 0.5 0.4  8 0.5 0.4  8.5 0.5 0.4  9 0.5 0.4  9.5 0.5 0.4  10 0.5 0.4  0 1 0.4  0.5 1 0.4  1 1 0.4  1.5 1 0.4  2 1 0.4  2.5 1 0.4  3 1 0.4  3.5 1 0.4  4 1 0.4  4.5 1 0.4  5 1 0.4  5.5 1 0.4  6 1 0.4  6.5 1 0.4  7 1 0.4  7.5 1 0.4  8 1 0.4  8.5 1 0.4  9 1 0.4  9.5 1 0.4  10 1 0.4  0 1.5 0.4  0.5 1.5 0.4  1 1.5 0.4  1.5 1.5 0.4  2 1.5 0.4  2.5 1.5 0.4  3 1.5 0.4  3.5 1.5 0.4  4 1.5 0.4  4.5 1.5 0.4  5 1.5 0.4  5.5 1.5 0.4  6 1.5 0.4  6.5 1.5 0.4  7 1.5 0.4  7.5 1.5 0.4  8 1.5 0.4  8.5 1.5 0.4  9 1.5 0.4  9.5 1.5 0.4  10 1.5 0.4  0 2 0.4  0.5 2 0.4  1 2 0.4  1.5 2 0.4  2 2 0.4  2.5 2 0.4  3 2 0.4  3.5 2 0.4  4 2 0.4  4.5 2 0.4  5 2 0.4  5.5 2 0.4  6 2 0.4  6.5 2 0.4  7 2 0.4  7.5 2 0.4  8 2 0.4  8.5 2 0.4  9 2 0.4  9.5 2 0.4  10 2 0.4  0 2.5 0.4  0.5 2.5 0.4  1 2.5 0.4  1.5 2.5 0.4  2 2.5 0.4  2.5 2.5 0.4  3 2.5 0.4  3.5 2.5 0.4  4 2.5 0.4  4.5 2.5 0.4  5 2.5 0.4  5.5 2.5 0.4  6 2.5 0.4  6.5 2.5 0.4  7 2.5 0.4  7.5 2.5 0.4  8 2.5 0.4  8.5 2.5 0.4  9 2.5 0.4  9.5 2.5 0.4  10 2.5 0.4  0 3 0.4  0.5 3 0.4  1 3 0.4  1.5 3 0.4  2 3 0.4  2.5 3 0.4  3 3 0.4  3.5 3 0.4  4 3 0.4  4.5 3 0.4  5 3 0.4  5.5 3 0.4  6 3 0.4  6.5 3 0.4  7 3 0.4  7.5 3 0.4  8 3 0.4  8.5 3 0.4  9 3 0.4  9.5 3 0.4  10 3 0.4  0 0 0.5  0.5 0 0.5  1 0 0.5  1.5 0 0.5  2 0 0.5  2.5 0 0.5  3 0 0.5  3.5 0 0.5  4 0 0.5  4.5 0 0.5  5 0 0.5  5.5 0 0.5  6 0 0.5  6.5 0 0.5  7 0 0.5  7.5 0 0.5  8 0 0.5  8.5 0 0.5  9 0 0.5  9.5 0 0.5  10 0 0.5  0 0.5 0.5  0.5 0.5 0.5  1 0.5 0.5  1.5 0.5 0.5  2 0.5 0.5  2.5 0.5 0.5  3 0.5 0.5  3.5 0.5 0.5  4 0.5 0.5  4.5 0.5 0.5  5 0.5 0.5  5.5 0.5 0.5  6 0.5 0.5  6.5 0.5 0.5  7 0.5 0.5  7.5 0.5 0.5  8 0.5 0.5  8.5 0.5 0.5  9 0.5 0.5  9.5 0.5 0.5  10 0.5 0.5  0 1 0.5  0.5 1 0.5  1 1 0.5  1.5 1 0.5  2 1 0.5  2.5 1 0.5  3 1 0.5  3.5 1 0.5  4 1 0.5  4.5 1 0.5  5 1 0.5  5.5 1 0.5  6 1 0.5  6.5 1 0.5  7 1 0.5  7.5 1 0.5  8 1 0.5  8.5 1 0.5  9 1 0.5  9.5 1 0.5  10 1 0.5  0 1.5 0.5  0.5 1.5 0.5  1 1.5 0.5  1.5 1.5 0.5  2 1.5 0.5  2.5 1.5 0.5  3 1.5 0.5  3.5 1.5 0.5  4 1.5 0.5  4.5 1.5 0.5  5 1.5 0.5  5.5 1.5 0.5  6 1.5 0.5  6.5 1.5 0.5  7 1.5 0.5  7.5 1.5 0.5  8 1.5 0.5  8.5 1.5 0.5  9 1.5 0.5  9.5 1.5 0.5  10 1.5 0.5  0 2 0.5  0.5 2 0.5  1 2 0.5  1.5 2 0.5  2 2 0.5  2.5 2 0.5  3 2 0.5  3.5 2 0.5  4 2 0.5  4.5 2 0.5  5 2 0.5  5.5 2 0.5  6 2 0.5  6.5 2 0.5  7 2 0.5  7.5 2 0.5  8 2 0.5  8.5 2 0.5  9 2 0.5  9.5 2 0.5  10 2 0.5  0 2.5 0.5  0.5 2.5 0.5  1 2.5 0.5  1.5 2.5 0.5  2 2.5 0.5  2.5 2.5 0.5  3 2.5 0.5  3.5 2.5 0.5  4 2.5 0.5  4.5 2.5 0.5  5 2.5 0.5  5.5 2.5 0.5  6 2.5 0.5  6.5 2.5 0.5  7 2.5 0.5  7.5 2.5 0.5  8 2.5 0.5  8.5 2.5 0.5  9 2.5 0.5  9.5 2.5 0.5  10 2.5 0.5  0 3 0.5  0.5 3 0.5  1 3 0.5  1.5 3 0.5  2 3 0.5  2.5 3 0.5  3 3 0.5  3.5 3 0.5  4 3 0.5  4.5 3 0.5  5 3 0.5  5.5 3 0.5  6 3 0.5  6.5 3 0.5  7 3 0.5  7.5 3 0.5  8 3 0.5  8.5 3 0.5  9 3 0.5  9.5 3 0.5  10 3 0.5  </DataArray>
</Points>
<Cells>
[...]
<PointData  Vectors="f_7-0"> 
<DataArray  type="Float64"  Name="f_7-0"  NumberOfComponents="3" format="ascii">0.0000000000000000e+00 0.0000000000000000e+00 0.0000000000000000e+00  1.3558088612686411e-01 1.0427188950187921e-01 2.5551308396390384e-02  2.6107467573830689e-01 1.8341303536356551e-01 2.3264789708092877e-02  3.8923168126238855e-01 2.3635559993701841e-01 2.5775519294485492e-02  5.4991899624435625e-01 2.5633705605099411e-01 2.9826163076448444e-02  7.3714879520899390e-01 2.5561635010384265e-01 3.1067932176507142e-02  9.3087666955272153e-01 2.5225625403460189e-01 3.0822377799021191e-02  1.1228376090396766e+00 2.5151906922305339e-01 3.0579635946979346e-02  1.3133034775358559e+00 2.5200043683649243e-01 3.0520294191225719e-02  1.5035130875498590e+00 2.5249087061876968e-01 3.0530587830030875e-02  1.6938901689012775e+00 2.5273939568301040e-01 3.0545844901890808e-02  1.8844171972875399e+00 2.5283679019764654e-01 3.0552432926552939e-02  2.0750087502003298e+00 2.5287793699871886e-01 3.0553856970106315e-02  2.2656195002885355e+00 2.5290239381417012e-01 3.0553963536833668e-02  2.4562365510759330e+00 2.5291951715482491e-01 3.0554090055388981e-02  2.6468579733646123e+00 2.5293085056391085e-01 3.0554320481252853e-02  2.8374830717178585e+00 2.5293766982857468e-01 3.0554522384912478e-02  3.0281107281665238e+00 2.5294152363058137e-01 3.0554648371586918e-02  3.2187398739329045e+00 2.5294362148790606e-01 3.0554714405036321e-02  3.4093697799703571e+00 2.5294466599427878e-01 3.0554745080807775e-02  3.5999999999999996e+00 2.5294498288189987e-01 3.0554753732194771e-02  0.0000000000000000e+00 0.0000000000000000e+00 0.0000000000000000e+00  7.4269628308772886e-02 3.9684091545897339e-02 2.6928880762647912e-02  2.1217608286837480e-01 1.2943392793364455e-01 2.6956352167732529e-02  3.6560959982266450e-01 1.7394106093425293e-01 2.9190813004554748e-02  5.4729610172094856e-01 1.8271415441672931e-01 3.0750319771858752e-02  7.3981287528427675e-01 1.7813820743256636e-01 3.0706313352235420e-02  9.3196978179500922e-01 1.7546483695066648e-01 3.0616542393951098e-02  1.1226687965408975e+00 1.7548077447872945e-01 3.0605499039542409e-02  1.3129394001620553e+00 1.7612647853453967e-01 3.0608449040278925e-02  1.5032990479048254e+00 1.7655298990465179e-01 3.0615476762941265e-02  1.6938031940631304e+00 1.7673171865191065e-01 3.0619785997900231e-02  1.8843837343541578e+00 1.7679715742168636e-01 3.0621490903781797e-02  2.0749911288445571e+00 1.7682860736255779e-01 3.0622132786765170e-02  2.2656072482019773e+00 1.7685016832070613e-01 3.0622493069318982e-02  2.4562281113244127e+00 1.7686544344232483e-01 3.0622765864028293e-02  2.6468527264738153e+00 1.7687517170672662e-01 3.0622960595550367e-02  2.8374800561695630e+00 1.7688083169211199e-01 3.0623083039329355e-02  3.0281090599975244e+00 1.7688399151532083e-01 3.0623153819484741e-02  3.2187389897842440e+00 1.7688572125497240e-01 3.0623192796536410e-02  3.4093693944680710e+00 1.7688659200170764e-01 3.0623212048920368e-02  3.5999999999999996e+00 1.7688686014592503e-01 3.0623217860988379e-02  0.0000000000000000e+00 0.0000000000000000e+00 0.0000000000000000e+00  3.8950174137143211e-02 7.8651985733774795e-03 2.1550993179336234e-02  1.6825582314897694e-01 7.0842717791550297e-02 3.1957742426722925e-02  3.4816250362784606e-01 1.0191644094038252e-01 3.1470671440400583e-02  5.4646606933824282e-01 1.0355729490371372e-01 3.0664262117562381e-02  7.4185834924903005e-01 1.0029990998747799e-01 3.0278756226684553e-02  9.3262306632676339e-01 9.9319508895703040e-02 3.0523829916387950e-02  1.1224338543979859e+00 9.9702307203158064e-02 3.0670831695643323e-02  1.3126116221298894e+00 1.0024593829926341e-01 3.0699954750542113e-02  1.5031138691030670e+00 1.0055845604035560e-01 3.0695628933687522e-02  1.6937258392432732e+00 1.0069019564754997e-01 3.0690492598029900e-02  1.8843514232043832e+00 1.0074525395312631e-01 3.0689531145352184e-02  2.0749731848917983e+00 1.0077566882058489e-01 3.0690284875423260e-02  2.2655950439202130e+00 1.0079628619331830e-01 3.0691036671949109e-02  2.4562199727001852e+00 1.0081002770042116e-01 3.0691412608440292e-02  2.6468477450346106e+00 1.0081845150276486e-01 3.0691551602161658e-02  2.8374771933510963e+00 1.0082331490732914e-01 3.0691605804697899e-02  3.0281074648968493e+00 1.0082605887122749e-01 3.0691637343475946e-02  3.2187381387397798e+00 1.0082758004716834e-01 3.0691659032584393e-02  3.4093690217133350e+00 1.0082835055490842e-01 3.0691671339937034e-02  3.5999999999999996e+00 1.0082858736445800e-01 3.0691675561324867e-02  0.0000000000000000e+00 0.0000000000000000e+00 0.0000000000000000e+00  3.3210429492953712e-02 4.9981444221959513e-03 1.6936058753364305e-02  1.3897707934364814e-01 7.4701183373000720e-03 3.6009122285006689e-02  3.4013541028328004e-01 2.0585008365048955e-02 3.1777936185491740e-02  5.4649299987500799e-01 2.1226091636729352e-02 3.0396481995080805e-02  7.4211465623465900e-01 2.2532636933619388e-02 3.0264719202345962e-02  9.3248780904665285e-01 2.3541083925737179e-02 3.0592473607256889e-02  1.1221438066338951e+00 2.4058196038935900e-02 3.0747451877147152e-02  1.3123774598350939e+00 2.4343190221810772e-02 3.0778853516578872e-02  1.5029796210127768e+00 2.4516870574960003e-02 3.0769008180382282e-02  1.6936589021437642e+00 2.4620892188847901e-02 3.0760499752538757e-02  1.8843168470660245e+00 2.4682210801992909e-02 3.0758514485919625e-02  2.0749529668025608e+00 2.4718589488964209e-02 3.0759115991664185e-02  2.2655823874195034e+00 2.4740229300102723e-02 3.0759811655563400e-02  2.4562121314338015e+00 2.4753059296919216e-02 3.0760087844966911e-02  2.6468430577295310e+00 2.4760644045522990e-02 3.0760133941255284e-02  2.8374744693509912e+00 2.4765112950802418e-02 3.0760127122309744e-02  3.0281059165034439e+00 2.4767718605315188e-02 3.0760124598850924e-02  3.2187373029239534e+00 2.4769188729187066e-02 3.0760128442280568e-02  3.4093686550857831e+00 2.4769933228729991e-02 3.0760132039997508e-02  3.5999999999999996e+00 2.4770160482506864e-02 3.0760133854940606e-02  0.0000000000000000e+00 0.0000000000000000e+00 0.0000000000000000e+00  3.9774061332835300e-02 -1.8432578170455274e-03 2.2385916550706042e-02  1.5102486321757447e-01 -4.4880707390613249e-02 3.3463364681601063e-02  3.4086495368703412e-01 -6.6107771988714772e-02 3.1523485350169203e-02  5.4507864320143040e-01 -6.0925833858190344e-02 3.0423792086878981e-02  7.4028887248057773e-01 -5.5151595406635757e-02 3.0607473991917752e-02  9.3150633788583059e-01 -5.2359423096646297e-02 3.0766219539093819e-02  1.1218147825580129e+00 -5.1679296287416729e-02 3.0833057179890867e-02  1.3122568910018582e+00 -5.1604795476861511e-02 3.0846179639551340e-02  1.5029017756894192e+00 -5.1549604683745719e-02 3.0837851741625278e-02  1.6936002856476746e+00 -5.1463286334410968e-02 3.0831255078949113e-02  1.8842772933924310e+00 -5.1389504628803873e-02 3.0829057430072488e-02  2.0749291479979179e+00 -5.1343594670710910e-02 3.0828841335558028e-02  2.2655688520063166e+00 -5.1318898751090629e-02 3.0828896946910905e-02  2.4562044442663935e+00 -5.1305754351727677e-02 3.0828844621169523e-02  2.6468385745052121e+00 -5.1298262122246037e-02 3.0828747865381475e-02  2.8374718129311156e+00 -5.1293744285120131e-02 3.0828672820470054e-02  3.0281043662134501e+00 -5.1291019918622095e-02 3.0828630413073755e-02  3.2187364551264093e+00 -5.1289456871333350e-02 3.0828609596288560e-02  3.4093682831312071e+00 -5.1288665518352608e-02 3.0828599971006426e-02  3.5999999999999996e+00 -5.1288425981908504e-02 3.0828597172305416e-02  0.0000000000000000e+00 0.0000000000000000e+00 0.0000000000000000e+00  6.3388836047795979e-02 -2.4706390439569410e-02 2.8018604519763849e-02  1.9551059165578946e-01 -1.0190078811908831e-01 2.7604917088159053e-02  3.5111744165652231e-01 -1.4485828620131649e-01 2.9281062595640048e-02  5.4190549732906967e-01 -1.4151600742727094e-01 3.0993809708832202e-02  7.3681120770305764e-01 -1.3289326860823975e-01 3.1106024039624210e-02  9.2991862375670598e-01 -1.2880417014079698e-01 3.1015816161213190e-02  1.1214250486809481e+00 -1.2770934471425857e-01 3.0937641813921821e-02  1.3122072829183931e+00 -1.2762069852258265e-01 3.0909849382070514e-02  1.5028662290295862e+00 -1.2762015045338887e-01 3.0904098608553338e-02  1.6935479748690261e+00 -1.2754925289521901e-01 3.0902327949753044e-02  1.8842331339299836e+00 -1.2746725171370094e-01 3.0900756951677631e-02  2.0749018442485951e+00 -1.2741176991996148e-01 3.0899313488944327e-02  2.2655541860481794e+00 -1.2738192099559451e-01 3.0898298388736752e-02  2.4561966226748524e+00 -1.2736665483271803e-01 3.0897719508087420e-02  2.6468341123650201e+00 -1.2735825270529980e-01 3.0897415451963735e-02  2.8374691329703827e+00 -1.2735321382494674e-01 3.0897251865712280e-02  3.0281027706741046e+00 -1.2735013945605747e-01 3.0897158698667885e-02  3.2187355733655556e+00 -1.2734835541458697e-01 3.0897105151757299e-02  3.4093678957061782e+00 -1.2734744749530913e-01 3.0897077313588029e-02  3.5999999999999996e+00 -1.2734717395727313e-01 3.0897068143131336e-02  0.0000000000000000e+00 0.0000000000000000e+00 0.0000000000000000e+00  1.1895797846218532e-01 -7.7964137647967641e-02 2.6474425768743502e-02  2.4734421400383627e-01 -1.6110299264547981e-01 2.2346759410210408e-02  3.7164990763117650e-01 -2.0767288059823857e-01 2.5871039060776521e-02  5.3818711893384208e-01 -2.1868569762842760e-01 3.1462945948054502e-02  7.3258290943513427e-01 -2.1109743539528478e-01 3.1510131314357155e-02  9.2805766077113716e-01 -2.0600698728504524e-01 3.1296934698245411e-02  1.1209458321640928e+00 -2.0410770565768910e-01 3.1073631171400499e-02  1.3121637089424492e+00 -2.0371854617309718e-01 3.0987539608909653e-02  1.5028471645465364e+00 -2.0368430976102822e-01 3.0970573493071061e-02  1.6934993819861595e+00 -2.0362942650520061e-01 3.0972250835011931e-02  1.8841868276308513e+00 -2.0354938190616992e-01 3.0972255763869666e-02  2.0748723239343896e+00 -2.0348631553481994e-01 3.0970036158138526e-02  2.2655384293425485e+00 -2.0344920988497367e-01 3.0967958518499865e-02  2.4561883965957896e+00 -2.0342972971613110e-01 3.0966740491628925e-02  2.6468294874035099e+00 -2.0341929720729621e-01 3.0966148377509994e-02  2.8374663550598598e+00 -2.0341325981428271e-01 3.0965861322593033e-02  3.0281011057090330e+00 -2.0340962298680337e-01 3.0965704900543137e-02  3.2187346478217957e+00 -2.0340750100610142e-01 3.0965613365813164e-02  3.4093674874074291e+00 -2.0340641012933811e-01 3.0965564256972031e-02  3.5999999999999996e+00 -2.0340607775333289e-01 3.0965547411617344e-02  0.0000000000000000e+00 0.0000000000000000e+00 0.0000000000000000e+00  1.3653356760071994e-01 1.0384423161597929e-01 1.5940853353752026e-02  2.6087466395804199e-01 1.8284118591866749e-01 1.3808100604567445e-02  3.8905791672351586e-01 2.3573736800371453e-01 1.5067780249566324e-02  5.4985202019204971e-01 2.5618314828058719e-01 1.7591575555480320e-02  7.3714576093898287e-01 2.5569101938048455e-01 1.8384416378985958e-02  9.3088531771387928e-01 2.5229228279808241e-01 1.8199741889392090e-02  1.1228406067167560e+00 2.5151196940836795e-01 1.8032200227062395e-02  1.3133032697269882e+00 2.5198264941205273e-01 1.7990754728750079e-02  1.5035124959539172e+00 2.5247389598547854e-01 1.7995590227528269e-02  1.6938898766735679e+00 2.5272440080828540e-01 1.8004252992809795e-02  1.8844171162261329e+00 2.5282262378570786e-01 1.8007783860671877e-02  2.0750087321741275e+00 2.5286387530303561e-01 1.8008307882293476e-02  2.2656194872750106e+00 2.5288827154973670e-01 1.8008173918052581e-02  2.4562365368456045e+00 2.5290536337430664e-01 1.8008150659002128e-02  2.6468579618939825e+00 2.5291670088859636e-01 1.8008242863174435e-02  2.8374830644053408e+00 2.5292353289016817e-01 1.8008341747812111e-02  3.0281107241092000e+00 2.5292739551520105e-01 1.8008405555830408e-02  3.2187398719443996e+00 2.5292949758690852e-01 1.8008438772779009e-02  3.4093697793398601e+00 2.5293054379295676e-01 1.8008453999848194e-02  3.5999999999999996e+00 2.5293086183781538e-01 1.8008458604983891e-02  0.0000000000000000e+00 0.0000000000000000e+00 0.0000000000000000e+00  7.4766627494029916e-02 4.0942669464131026e-02 1.6223390888562887e-02  2.1207391764962572e-01 1.2874654959791679e-01 1.6023089141797269e-02  3.6556388628297565e-01 1.7348432049790130e-01 1.7200417395686528e-02  5.4726245896940362e-01 1.8257674267726326e-01 1.8190891062391561e-02  7.3983317926791514e-01 1.7815060006385930e-01 1.8138598757221073e-02  9.3197662084359911e-01 1.7548665824874590e-01 1.8079867661438202e-02  1.1226676798099671e+00 1.7547819719163074e-01 1.8070731138121174e-02  1.3129381508658950e+00 1.7611171629446634e-01 1.8069702608157379e-02  1.5032986339515864e+00 1.7653669316842802e-01 1.8073021962617571e-02  1.6938031630763508e+00 1.7671658188157746e-01 1.8075273240719072e-02  1.8843837664757697e+00 1.7678280875302835e-01 1.8076116359131207e-02  2.0749911352992432e+00 1.7681447480344389e-01 1.8076393411590692e-02  2.2656072367410651e+00 1.7683603573006693e-01 1.8076544420964048e-02  2.4562280987760432e+00 1.7685129256073356e-01 1.8076672629007244e-02  2.6468527184765267e+00 1.7686102282635330e-01 1.8076771530383593e-02  2.8374800519677286e+00 1.7686669331357291e-01 1.8076836026519452e-02  3.0281090578622987e+00 1.7686986185104411e-01 1.8076873912146040e-02  3.2187389887560731e+00 1.7687159649271741e-01 1.8076894923985769e-02  3.4093693941901884e+00 1.7687246958228015e-01 1.8076905360506015e-02  3.5999999999999996e+00 1.7687273838057291e-01 1.8076908570284655e-02  0.0000000000000000e+00 0.0000000000000000e+00 0.0000000000000000e+00  3.7546950412681863e-02 8.3186532042251026e-03 1.2848717444413342e-02  1.6883400837957990e-01 7.1032271238051670e-02 1.8908472672795201e-02  3.4824284968803310e-01 1.0166014604333161e-01 1.8597435557603056e-02  5.4659836207077817e-01 1.0346338220754296e-01 1.8133084271972195e-02  7.4188108308173650e-01 1.0029902839405326e-01 1.7873001491329178e-02  9.3260654691728828e-01 9.9326462094193380e-02 1.8040572120770763e-02  1.1224251247257491e+00 9.9694877160934392e-02 1.8131335338223992e-02  1.3126104044164819e+00 1.0023090655862781e-01 1.8149447797901015e-02  1.5031146220502527e+00 1.0054266625783707e-01 1.8147330435662752e-02  1.6937263846217721e+00 1.0067529466361372e-01 1.8144372532119982e-02  1.8843515711476315e+00 1.0073092374114755e-01 1.8143907099927428e-02  2.0749731744138300e+00 1.0076150257479596e-01 1.8144435605267691e-02  2.2655950185564793e+00 1.0078213295635798e-01 1.8144929268274920e-02  2.4562199640349927e+00 1.0079587235724036e-01 1.8145176303202049e-02  2.6468477457843318e+00 1.0080430406881562e-01 1.8145270010952695e-02  2.8374771954429869e+00 1.0080917826064355e-01 1.8145307754691548e-02  3.0281074659668246e+00 1.0081193014602820e-01 1.8145329518807884e-02  3.2187381390908345e+00 1.0081345578865397e-01 1.8145344073855426e-02  3.4093690218787804e+00 1.0081422850707999e-01 1.8145352258471168e-02  3.5999999999999996e+00 1.0081446595643322e-01 1.8145354993656299e-02  0.0000000000000000e+00 0.0000000000000000e+00 0.0000000000000000e+00  3.2102006766959554e-02 4.8338959088535093e-03 1.0109198422136631e-02  1.3860009176340610e-01 7.4250429751085475e-03 2.1374767856640629e-02  3.4053119163478995e-01 2.0502288430648268e-02 1.8770017180278889e-02  5.4665170571322952e-01 2.1148764078230128e-02 1.7977366868207129e-02  7.4210433359528716e-01 2.2499970216978186e-02 1.7898382726287111e-02  9.3246165547093940e-01 2.3523870792662938e-02 1.8109253653421246e-02  1.1221340036138274e+00 2.4044508718195606e-02 1.8201080570567615e-02  1.3123774275884872e+00 2.4328567010335912e-02 1.8222805207603863e-02  1.5029812013909096e+00 2.4501852675604840e-02 1.8218072305688612e-02  1.6936596905226717e+00 2.4606115503703549e-02 1.8213467781198898e-02  1.8843170071408268e+00 2.4667743254032155e-02 1.8212538455532338e-02  2.0749529418218162e+00 2.4704298534166041e-02 1.8213032167226959e-02  2.2655823647521456e+00 2.4726018598645202e-02 1.8213524410369782e-02  2.4562121331855260e+00 2.4738885864604720e-02 1.8213731259327823e-02  2.6468430669267136e+00 2.4746491482672116e-02 1.8213780944823295e-02  2.8374744761063315e+00 2.4750973765180314e-02 1.8213788454362417e-02  3.0281059197707791e+00 2.4753587945399801e-02 1.8213792987119417e-02  3.2187373042383478e+00 2.4755063126169895e-02 1.8213798395191265e-02  3.4093686555094602e+00 2.4755810348743804e-02 1.8213802077783361e-02  3.5999999999999996e+00 2.4756038440103715e-02 1.8213803568197399e-02  0.0000000000000000e+00 0.0000000000000000e+00 0.0000000000000000e+00  3.8814020312306276e-02 -2.5478496297853094e-03 1.3257633094531308e-02  1.5055269730696594e-01 -4.4462111156615990e-02 1.9949510640647417e-02  3.4146875330568682e-01 -6.5992279509986235e-02 1.8609516958021901e-02  5.4513811518515787e-01 -6.0993482845324652e-02 1.8058236413112928e-02  7.4026852664471432e-01 -5.5211243186636151e-02 1.8146494025666118e-02  9.3148838322110150e-01 -5.2396365373355194e-02 1.8243191447373387e-02  1.1218097571604739e+00 -5.1699616565205067e-02 1.8282296366969864e-02  1.3122579667799126e+00 -5.1619631453799469e-02 1.8291845922480503e-02  1.5029033610707747e+00 -5.1564050391944997e-02 1.8287240228905273e-02  1.6936010007526154e+00 -5.1477960862716256e-02 1.8283603994520538e-02  1.8842774618012390e+00 -5.1404118883251561e-02 1.8282403662445500e-02  2.0749291656119149e+00 -5.1358021082674184e-02 1.8282330740796389e-02  2.2655688645178320e+00 -5.1333176944749072e-02 1.8282396148776265e-02  2.4562044650380801e+00 -5.1319953114179889e-02 1.8282383592015825e-02  2.6468385923550199e+00 -5.1312424140308815e-02 1.8282336444133195e-02  2.8374718238122605e+00 -5.1307888391601983e-02 1.8282297272457622e-02  3.0281043717578209e+00 -5.1305153875133208e-02 1.8282274838545547e-02  3.2187364576854205e+00 -5.1303584680799000e-02 1.8282263867468788e-02  3.4093682839995196e+00 -5.1302789869197382e-02 1.8282258863500152e-02  3.5999999999999996e+00 -5.1302549193579086e-02 1.8282257356377798e-02  0.0000000000000000e+00 0.0000000000000000e+00 0.0000000000000000e+00  6.3047547067089274e-02 -2.4988973866320201e-02 1.6638803523445437e-02  1.9577159588291324e-01 -1.0170889720440873e-01 1.6488051066240881e-02  3.5111519134100372e-01 -1.4448154505295735e-01 1.7399355893131623e-02  5.4193132493708374e-01 -1.4148493913060670e-01 1.8465773382313123e-02  7.3680479879091820e-01 -1.3296042831443258e-01 1.8493191872906690e-02  9.2991901984058878e-01 -1.2885265871628518e-01 1.8428248806193551e-02  1.1214282263253661e+00 -1.2773649917150057e-01 1.8378449161708197e-02  1.3122091755878986e+00 -1.2763739324745696e-01 1.8359786424144584e-02  1.5028671694987379e+00 -1.2763442635832811e-01 1.8355738390153212e-02  1.6935483935075908e+00 -1.2756371271369382e-01 1.8354359664934015e-02  1.8842333261151871e+00 -1.2748187680431911e-01 1.8353197933110927e-02  2.0749019559332837e+00 -1.2742627566028458e-01 1.8352201609485912e-02  2.2655542588314126e+00 -1.2739625710641722e-01 1.8351522785423426e-02  2.4561966681631202e+00 -1.2738088122805169e-01 1.8351141835896870e-02  2.6468341388873715e+00 -1.2737242598285517e-01 1.8350942957330828e-02  2.8374691477955905e+00 -1.2736736316254404e-01 1.8350836238249863e-02  3.0281027787831114e+00 -1.2736427663858468e-01 1.8350775730397218e-02  3.2187355775390958e+00 -1.2736248551722587e-01 1.8350741172951948e-02  3.4093678972866694e+00 -1.2736157359900840e-01 1.8350723343439092e-02  3.5999999999999996e+00 -1.2736129857406370e-01 1.8350717485510745e-02  0.0000000000000000e+00 0.0000000000000000e+00 0.0000000000000000e+00  1.1877532234876091e-01 -7.8757766388450043e-02 1.6483604929625445e-02  2.4785709506713663e-01 -1.6092789718825246e-01 1.3438412222509166e-02  3.7133767511741284e-01 -2.0695514924022043e-01 1.5489406067088658e-02  5.3811876270156789e-01 -2.1869746540435228e-01 1.8889259372476066e-02  7.3257728479382611e-01 -2.1113993619538068e-01 1.8744484958802991e-02  9.2806784539222187e-01 -2.0606098464289802e-01 1.8635592990809323e-02  1.1209534773920713e+00 -2.0413842579653393e-01 1.8490063184412604e-02  1.3121664622912304e+00 -2.0373696218935322e-01 1.8436877942783727e-02  1.5028479250516968e+00 -2.0369864371503976