<?xml version="1.0"?>
<VTKFile type="UnstructuredGrid"  version="0.1"  >
<UnstructuredGrid>
<Piece  NumberOfPoints="882" NumberOfCells="3600">
<Points>
<DataArray  type="Float64"  NumberOfComponents="3"  format="ascii">0 0 0  0.5 0 0  1 0 0  1.5 0 0  2 0 0  2.5 0 0  3 0 0  3.5 0 0  4 0 0  4.5 0 0  5 0 0  5.5 0 0  6 0 0  6.5 0 0  7 0 0  7.5 0 0  8 0 0  8.5 0 0  9 0 0  9.5 0 0  10 0 0  0 0.5 0  0.5 0.5 0  1 0.5 0  1.5 0.5 0  2 0.5 0  2.5 0.5 0  3 0.5 0  3.5 0.5 0  4 0.5 0  4.5 0.5 0  5 0.5 0  5.5 0.5 0  6 0.5 0  6.5 0.5 0  7 0.5 0  7.5 0.5 0  8 0.5 0  8.5 0.5 0  9 0.5 0  9.5 0.5 0  10 0.5 0  0 1 0  0.5 1 0  1 1 0  1.5 1 0  2 1 0  2.5 1 0  3 1 0  3.5 1 0  4 1 0  4.5 1 0  5 1 0  5.5 1 0  6 1 0  6.5 1 0  7 1 0  7.5 1 0  8 1 0  8.5 1 0  9 1 0  9.5 1 0  10 1 0  0 1.5 0  0.5 1.5 0  1 1.5 0  1.5 1.5 0  2 1.5 0  2.5 1.5 0  3 1.5 0  3.5 1.5 0  4 1.5 0  4.5 1.5 0  5 1.5 0  5.5 1.5 0  6 1.5 0  6.5 1.5 0  7 1.5 0  7.5 1.5 0  8 1.5 0  8.5 1.5 0  9 1.5 0  9.5 1.5 0  10 1.5 0  0 2 0  0.5 2 0  1 2 0  1.5 2 0  2 2 0  2.5 2 0  3 2 0  3.5 2 0  4 2 0  4.5 2 0  5 2 0  5.5 2 0  6 2 0  6.5 2 0  7 2 0  7.5 2 0  8 2 0  8.5 2 0  9 2 0  9.5 2 0  10 2 0  0 2.5 0  0.5 2.5 0  1 2.5 0  1.5 2.5 0  2 2.5 0  2.5 2.5 0  3 2.5 0  3.5 2.5 0  4 2.5 0  4.5 2.5 0  5 2.5 0  5.5 2.5 0  6 2.5 0  6.5 2.5 0  7 2.5 0  7.5 2.5 0  8 2.5 0  8.5 2.5 0  9 2.5 0  9.5 2.5 0  10 2.5 0  0 3 0  0.5 3 0  1 3 0  1.5 3 0  2 3 0  2.5 3 0  3 3 0  3.5 3 0  4 3 0  4.5 3 0  5 3 0  5.5 3 0  6 3 0  6.5 3 0  7 3 0  7.5 3 0  8 3 0  8.5 3 0  9 3 0  9.5 3 0  10 3 0  0 0 0.1  0.5 0 0.1  1 0 0.1  1.5 0 0.1  2 0 0.1  2.5 0 0.1  3 0 0.1  3.5 0 0.1  4 0 0.1  4.5 0 0.1  5 0 0.1  5.5 0 0.1  6 0 0.1  6.5 0 0.1  7 0 0.1  7.5 0 0.1  8 0 0.1  8.5 0 0.1  9 0 0.1  9.5 0 0.1  10 0 0.1  0 0.5 0.1  0.5 0.5 0.1  1 0.5 0.1  1.5 0.5 0.1  2 0.5 0.1  2.5 0.5 0.1  3 0.5 0.1  3.5 0.5 0.1  4 0.5 0.1  4.5 0.5 0.1  5 0.5 0.1  5.5 0.5 0.1  6 0.5 0.1  6.5 0.5 0.1  7 0.5 0.1  7.5 0.5 0.1  8 0.5 0.1  8.5 0.5 0.1  9 0.5 0.1  9.5 0.5 0.1  10 0.5 0.1  0 1 0.1  0.5 1 0.1  1 1 0.1  1.5 1 0.1  2 1 0.1  2.5 1 0.1  3 1 0.1  3.5 1 0.1  4 1 0.1  4.5 1 0.1  5 1 0.1  5.5 1 0.1  6 1 0.1  6.5 1 0.1  7 1 0.1  7.5 1 0.1  8 1 0.1  8.5 1 0.1  9 1 0.1  9.5 1 0.1  10 1 0.1  0 1.5 0.1  0.5 1.5 0.1  1 1.5 0.1  1.5 1.5 0.1  2 1.5 0.1  2.5 1.5 0.1  3 1.5 0.1  3.5 1.5 0.1  4 1.5 0.1  4.5 1.5 0.1  5 1.5 0.1  5.5 1.5 0.1  6 1.5 0.1  6.5 1.5 0.1  7 1.5 0.1  7.5 1.5 0.1  8 1.5 0.1  8.5 1.5 0.1  9 1.5 0.1  9.5 1.5 0.1  10 1.5 0.1  0 2 0.1  0.5 2 0.1  1 2 0.1  1.5 2 0.1  2 2 0.1  2.5 2 0.1  3 2 0.1  3.5 2 0.1  4 2 0.1  4.5 2 0.1  5 2 0.1  5.5 2 0.1  6 2 0.1  6.5 2 0.1  7 2 0.1  7.5 2 0.1  8 2 0.1  8.5 2 0.1  9 2 0.1  9.5 2 0.1  10 2 0.1  0 2.5 0.1  0.5 2.5 0.1  1 2.5 0.1  1.5 2.5 0.1  2 2.5 0.1  2.5 2.5 0.1  3 2.5 0.1  3.5 2.5 0.1  4 2.5 0.1  4.5 2.5 0.1  5 2.5 0.1  5.5 2.5 0.1  6 2.5 0.1  6.5 2.5 0.1  7 2.5 0.1  7.5 2.5 0.1  8 2.5 0.1  8.5 2.5 0.1  9 2.5 0.1  9.5 2.5 0.1  10 2.5 0.1  0 3 0.1  0.5 3 0.1  1 3 0.1  1.5 3 0.1  2 3 0.1  2.5 3 0.1  3 3 0.1  3.5 3 0.1  4 3 0.1  4.5 3 0.1  5 3 0.1  5.5 3 0.1  6 3 0.1  6.5 3 0.1  7 3 0.1  7.5 3 0.1  8 3 0.1  8.5 3 0.1  9 3 0.1  9.5 3 0.1  10 3 0.1  0 0 0.2  0.5 0 0.2  1 0 0.2  1.5 0 0.2  2 0 0.2  2.5 0 0.2  3 0 0.2  3.5 0 0.2  4 0 0.2  4.5 0 0.2  5 0 0.2  5.5 0 0.2  6 0 0.2  6.5 0 0.2  7 0 0.2  7.5 0 0.2  8 0 0.2  8.5 0 0.2  9 0 0.2  9.5 0 0.2  10 0 0.2  0 0.5 0.2  0.5 0.5 0.2  1 0.5 0.2  1.5 0.5 0.2  2 0.5 0.2  2.5 0.5 0.2  3 0.5 0.2  3.5 0.5 0.2  4 0.5 0.2  4.5 0.5 0.2  5 0.5 0.2  5.5 0.5 0.2  6 0.5 0.2  6.5 0.5 0.2  7 0.5 0.2  7.5 0.5 0.2  8 0.5 0.2  8.5 0.5 0.2  9 0.5 0.2  9.5 0.5 0.2  10 0.5 0.2  0 1 0.2  0.5 1 0.2  1 1 0.2  1.5 1 0.2  2 1 0.2  2.5 1 0.2  3 1 0.2  3.5 1 0.2  4 1 0.2  4.5 1 0.2  5 1 0.2  5.5 1 0.2  6 1 0.2  6.5 1 0.2  7 1 0.2  7.5 1 0.2  8 1 0.2  8.5 1 0.2  9 1 0.2  9.5 1 0.2  10 1 0.2  0 1.5 0.2  0.5 1.5 0.2  1 1.5 0.2  1.5 1.5 0.2  2 1.5 0.2  2.5 1.5 0.2  3 1.5 0.2  3.5 1.5 0.2  4 1.5 0.2  4.5 1.5 0.2  5 1.5 0.2  5.5 1.5 0.2  6 1.5 0.2  6.5 1.5 0.2  7 1.5 0.2  7.5 1.5 0.2  8 1.5 0.2  8.5 1.5 0.2  9 1.5 0.2  9.5 1.5 0.2  10 1.5 0.2  0 2 0.2  0.5 2 0.2  1 2 0.2  1.5 2 0.2  2 2 0.2  2.5 2 0.2  3 2 0.2  3.5 2 0.2  4 2 0.2  4.5 2 0.2  5 2 0.2  5.5 2 0.2  6 2 0.2  6.5 2 0.2  7 2 0.2  7.5 2 0.2  8 2 0.2  8.5 2 0.2  9 2 0.2  9.5 2 0.2  10 2 0.2  0 2.5 0.2  0.5 2.5 0.2  1 2.5 0.2  1.5 2.5 0.2  2 2.5 0.2  2.5 2.5 0.2  3 2.5 0.2  3.5 2.5 0.2  4 2.5 0.2  4.5 2.5 0.2  5 2.5 0.2  5.5 2.5 0.2  6 2.5 0.2  6.5 2.5 0.2  7 2.5 0.2  7.5 2.5 0.2  8 2.5 0.2  8.5 2.5 0.2  9 2.5 0.2  9.5 2.5 0.2  10 2.5 0.2  0 3 0.2  0.5 3 0.2  1 3 0.2  1.5 3 0.2  2 3 0.2  2.5 3 0.2  3 3 0.2  3.5 3 0.2  4 3 0.2  4.5 3 0.2  5 3 0.2  5.5 3 0.2  6 3 0.2  6.5 3 0.2  7 3 0.2  7.5 3 0.2  8 3 0.2  8.5 3 0.2  9 3 0.2  9.5 3 0.2  10 3 0.2  0 0 0.3  0.5 0 0.3  1 0 0.3  1.5 0 0.3  2 0 0.3  2.5 0 0.3  3 0 0.3  3.5 0 0.3  4 0 0.3  4.5 0 0.3  5 0 0.3  5.5 0 0.3  6 0 0.3  6.5 0 0.3  7 0 0.3  7.5 0 0.3  8 0 0.3  8.5 0 0.3  9 0 0.3  9.5 0 0.3  10 0 0.3  0 0.5 0.3  0.5 0.5 0.3  1 0.5 0.3  1.5 0.5 0.3  2 0.5 0.3  2.5 0.5 0.3  3 0.5 0.3  3.5 0.5 0.3  4 0.5 0.3  4.5 0.5 0.3  5 0.5 0.3  5.5 0.5 0.3  6 0.5 0.3  6.5 0.5 0.3  7 0.5 0.3  7.5 0.5 0.3  8 0.5 0.3  8.5 0.5 0.3  9 0.5 0.3  9.5 0.5 0.3  10 0.5 0.3  0 1 0.3  0.5 1 0.3  1 1 0.3  1.5 1 0.3  2 1 0.3  2.5 1 0.3  3 1 0.3  3.5 1 0.3  4 1 0.3  4.5 1 0.3  5 1 0.3  5.5 1 0.3  6 1 0.3  6.5 1 0.3  7 1 0.3  7.5 1 0.3  8 1 0.3  8.5 1 0.3  9 1 0.3  9.5 1 0.3  10 1 0.3  0 1.5 0.3  0.5 1.5 0.3  1 1.5 0.3  1.5 1.5 0.3  2 1.5 0.3  2.5 1.5 0.3  3 1.5 0.3  3.5 1.5 0.3  4 1.5 0.3  4.5 1.5 0.3  5 1.5 0.3  5.5 1.5 0.3  6 1.5 0.3  6.5 1.5 0.3  7 1.5 0.3  7.5 1.5 0.3  8 1.5 0.3  8.5 1.5 0.3  9 1.5 0.3  9.5 1.5 0.3  10 1.5 0.3  0 2 0.3  0.5 2 0.3  1 2 0.3  1.5 2 0.3  2 2 0.3  2.5 2 0.3  3 2 0.3  3.5 2 0.3  4 2 0.3  4.5 2 0.3  5 2 0.3  5.5 2 0.3  6 2 0.3  6.5 2 0.3  7 2 0.3  7.5 2 0.3  8 2 0.3  8.5 2 0.3  9 2 0.3  9.5 2 0.3  10 2 0.3  0 2.5 0.3  0.5 2.5 0.3  1 2.5 0.3  1.5 2.5 0.3  2 2.5 0.3  2.5 2.5 0.3  3 2.5 0.3  3.5 2.5 0.3  4 2.5 0.3  4.5 2.5 0.3  5 2.5 0.3  5.5 2.5 0.3  6 2.5 0.3  6.5 2.5 0.3  7 2.5 0.3  7.5 2.5 0.3  8 2.5 0.3  8.5 2.5 0.3  9 2.5 0.3  9.5 2.5 0.3  10 2.5 0.3  0 3 0.3  0.5 3 0.3  1 3 0.3  1.5 3 0.3  2 3 0.3  2.5 3 0.3  3 3 0.3  3.5 3 0.3  4 3 0.3  4.5 3 0.3  5 3 0.3  5.5 3 0.3  6 3 0.3  6.5 3 0.3  7 3 0.3  7.5 3 0.3  8 3 0.3  8.5 3 0.3  9 3 0.3  9.5 3 0.3  10 3 0.3  0 0 0.4  0.5 0 0.4  1 0 0.4  1.5 0 0.4  2 0 0.4  2.5 0 0.4  3 0 0.4  3.5 0 0.4  4 0 0.4  4.5 0 0.4  5 0 0.4  5.5 0 0.4  6 0 0.4  6.5 0 0.4  7 0 0.4  7.5 0 0.4  8 0 0.4  8.5 0 0.4  9 0 0.4  9.5 0 0.4  10 0 0.4  0 0.5 0.4  0.5 0.5 0.4  1 0.5 0.4  1.5 0.5 0.4  2 0.5 0.4  2.5 0.5 0.4  3 0.5 0.4  3.5 0.5 0.4  4 0.5 0.4  4.5 0.5 0.4  5 0.5 0.4  5.5 0.5 0.4  6 0.5 0.4  6.5 0.5 0.4  7 0.5 0.4  7.5 0.5 0.4  8 0.5 0.4  8.5 0.5 0.4  9 0.5 0.4  9.5 0.5 0.4  10 0.5 0.4  0 1 0.4  0.5 1 0.4  1 1 0.4  1.5 1 0.4  2 1 0.4  2.5 1 0.4  3 1 0.4  3.5 1 0.4  4 1 0.4  4.5 1 0.4  5 1 0.4  5.5 1 0.4  6 1 0.4  6.5 1 0.4  7 1 0.4  7.5 1 0.4  8 1 0.4  8.5 1 0.4  9 1 0.4  9.5 1 0.4  10 1 0.4  0 1.5 0.4  0.5 1.5 0.4  1 1.5 0.4  1.5 1.5 0.4  2 1.5 0.4  2.5 1.5 0.4  3 1.5 0.4  3.5 1.5 0.4  4 1.5 0.4  4.5 1.5 0.4  5 1.5 0.4  5.5 1.5 0.4  6 1.5 0.4  6.5 1.5 0.4  7 1.5 0.4  7.5 1.5 0.4  8 1.5 0.4  8.5 1.5 0.4  9 1.5 0.4  9.5 1.5 0.4  10 1.5 0.4  0 2 0.4  0.5 2 0.4  1 2 0.4  1.5 2 0.4  2 2 0.4  2.5 2 0.4  3 2 0.4  3.5 2 0.4  4 2 0.4  4.5 2 0.4  5 2 0.4  5.5 2 0.4  6 2 0.4  6.5 2 0.4  7 2 0.4  7.5 2 0.4  8 2 0.4  8.5 2 0.4  9 2 0.4  9.5 2 0.4  10 2 0.4  0 2.5 0.4  0.5 2.5 0.4  1 2.5 0.4  1.5 2.5 0.4  2 2.5 0.4  2.5 2.5 0.4  3 2.5 0.4  3.5 2.5 0.4  4 2.5 0.4  4.5 2.5 0.4  5 2.5 0.4  5.5 2.5 0.4  6 2.5 0.4  6.5 2.5 0.4  7 2.5 0.4  7.5 2.5 0.4  8 2.5 0.4  8.5 2.5 0.4  9 2.5 0.4  9.5 2.5 0.4  10 2.5 0.4  0 3 0.4  0.5 3 0.4  1 3 0.4  1.5 3 0.4  2 3 0.4  2.5 3 0.4  3 3 0.4  3.5 3 0.4  4 3 0.4  4.5 3 0.4  5 3 0.4  5.5 3 0.4  6 3 0.4  6.5 3 0.4  7 3 0.4  7.5 3 0.4  8 3 0.4  8.5 3 0.4  9 3 0.4  9.5 3 0.4  10 3 0.4  0 0 0.5  0.5 0 0.5  1 0 0.5  1.5 0 0.5  2 0 0.5  2.5 0 0.5  3 0 0.5  3.5 0 0.5  4 0 0.5  4.5 0 0.5  5 0 0.5  5.5 0 0.5  6 0 0.5  6.5 0 0.5  7 0 0.5  7.5 0 0.5  8 0 0.5  8.5 0 0.5  9 0 0.5  9.5 0 0.5  10 0 0.5  0 0.5 0.5  0.5 0.5 0.5  1 0.5 0.5  1.5 0.5 0.5  2 0.5 0.5  2.5 0.5 0.5  3 0.5 0.5  3.5 0.5 0.5  4 0.5 0.5  4.5 0.5 0.5  5 0.5 0.5  5.5 0.5 0.5  6 0.5 0.5  6.5 0.5 0.5  7 0.5 0.5  7.5 0.5 0.5  8 0.5 0.5  8.5 0.5 0.5  9 0.5 0.5  9.5 0.5 0.5  10 0.5 0.5  0 1 0.5  0.5 1 0.5  1 1 0.5  1.5 1 0.5  2 1 0.5  2.5 1 0.5  3 1 0.5  3.5 1 0.5  4 1 0.5  4.5 1 0.5  5 1 0.5  5.5 1 0.5  6 1 0.5  6.5 1 0.5  7 1 0.5  7.5 1 0.5  8 1 0.5  8.5 1 0.5  9 1 0.5  9.5 1 0.5  10 1 0.5  0 1.5 0.5  0.5 1.5 0.5  1 1.5 0.5  1.5 1.5 0.5  2 1.5 0.5  2.5 1.5 0.5  3 1.5 0.5  3.5 1.5 0.5  4 1.5 0.5  4.5 1.5 0.5  5 1.5 0.5  5.5 1.5 0.5  6 1.5 0.5  6.5 1.5 0.5  7 1.5 0.5  7.5 1.5 0.5  8 1.5 0.5  8.5 1.5 0.5  9 1.5 0.5  9.5 1.5 0.5  10 1.5 0.5  0 2 0.5  0.5 2 0.5  1 2 0.5  1.5 2 0.5  2 2 0.5  2.5 2 0.5  3 2 0.5  3.5 2 0.5  4 2 0.5  4.5 2 0.5  5 2 0.5  5.5 2 0.5  6 2 0.5  6.5 2 0.5  7 2 0.5  7.5 2 0.5  8 2 0.5  8.5 2 0.5  9 2 0.5  9.5 2 0.5  10 2 0.5  0 2.5 0.5  0.5 2.5 0.5  1 2.5 0.5  1.5 2.5 0.5  2 2.5 0.5  2.5 2.5 0.5  3 2.5 0.5  3.5 2.5 0.5  4 2.5 0.5  4.5 2.5 0.5  5 2.5 0.5  5.5 2.5 0.5  6 2.5 0.5  6.5 2.5 0.5  7 2.5 0.5  7.5 2.5 0.5  8 2.5 0.5  8.5 2.5 0.5  9 2.5 0.5  9.5 2.5 0.5  10 2.5 0.5  0 3 0.5  0.5 3 0.5  1 3 0.5  1.5 3 0.5  2 3 0.5  2.5 3 0.5  3 3 0.5  3.5 3 0.5  4 3 0.5  4.5 3 0.5  5 3 0.5  5.5 3 0.5  6 3 0.5  6.5 3 0.5  7 3 0.5  7.5 3 0.5  8 3 0.5  8.5 3 0.5  9 3 0.5  9.5 3 0.5  10 3 0.5  </DataArray>
</Points>
<Cells>
[...]
<PointData  Vectors="f_7-0"> 
<DataArray  type="Float64"  Name="f_7-0"  NumberOfComponents="3" format="ascii">0.0000000000000000e+00 0.0000000000000000e+00 0.0000000000000000e+00  1.1892768068039448e-01 9.0905747523769356e-02 2.3339221922672695e-02  2.3029573670885697e-01 1.5489445113908745e-01 2.1480728225018023e-02  3.4085999381309096e-01 1.9540483702465608e-01 2.3076642229572036e-02  4.7442259213131699e-01 2.0925643548313222e-01 2.6742486487767669e-02  6.2830401549889359e-01 2.0917400374912212e-01 2.7982639899001051e-02  7.8803131078532251e-01 2.0691948631080792e-01 2.7944896492897591e-02  9.4714380913002849e-01 2.0625815687478891e-01 2.7743551274982743e-02  1.1051518494373684e+00 2.0657326948716059e-01 2.7662070418660169e-02  1.2628061357079092e+00 2.0701156271595772e-01 2.7658011689150216e-02  1.4205193723633454e+00 2.0729082191817155e-01 2.7672349436410042e-02  1.5783551411509318e+00 2.0742992267444357e-01 2.7682538925771927e-02  1.7362662240747013e+00 2.0749836634515087e-01 2.7686833572394938e-02  1.8942098978305353e+00 2.0753780118586837e-01 2.7688290441946151e-02  2.0521667782316109e+00 2.0756398515660388e-01 2.7688936833929385e-02  2.2101306960442328e+00 2.0758177340930623e-01 2.7689422919699763e-02  2.3680996021210334e+00 2.0759336031856890e-01 2.7689817969997137e-02  2.5260721143924063e+00 2.0760052389153322e-01 2.7690097093626367e-02  2.6840469803982190e+00 2.0760470664585823e-01 2.7690267408563687e-02  2.8420231913224692e+00 2.0760687474324840e-01 2.7690355140236666e-02  2.9999999999999996e+00 2.0760754385647834e-01 2.7690380784365903e-02  0.0000000000000000e+00 0.0000000000000000e+00 0.0000000000000000e+00  6.7732013589244966e-02 3.5615224286498229e-02 2.4624640934361085e-02  1.8946471751194791e-01 1.0815987296811587e-01 2.4694105061591906e-02  3.2108773336940100e-01 1.4295364879723427e-01 2.5838855071471947e-02  4.7133046982865306e-01 1.4900855720099082e-01 2.7560534668928886e-02  6.3002859729203542e-01 1.4600694107781301e-01 2.7845034927580940e-02  7.8898839394079312e-01 1.4388396164129513e-01 2.7772144098987084e-02  9.4711122882557253e-01 1.4371787329576929e-01 2.7743986084825145e-02  1.1048375067017944e+00 1.4421600344861324e-01 2.7742995075338638e-02  1.2625636458868161e+00 1.4464191241492463e-01 2.7750526793542233e-02  1.4203911732923373e+00 1.4487010431931441e-01 2.7757210454984114e-02  1.5782939784960714e+00 1.4497557365824298e-01 2.7760911427602959e-02  1.7362336333880162e+00 1.4502910272237438e-01 2.7762689054191152e-02  1.8941891181398156e+00 1.4506261701964010e-01 2.7763622555218189e-02  2.0521525583766702e+00 1.4508580767224594e-01 2.7764218101837500e-02  2.2101212219070043e+00 1.4510150650188475e-01 2.7764631791484716e-02  2.3680936125208798e+00 1.4511155791296482e-01 2.7764911026152871e-02  2.5260685154923754e+00 1.4511769259167490e-01 2.7765088117288016e-02  2.6840449710242620e+00 1.4512125992190097e-01 2.7765192864582500e-02  2.8420222938897646e+00 1.4512311218985330e-01 2.7765246611978201e-02  2.9999999999999996e+00 1.4512368874470144e-01 2.7765263387649054e-02  0.0000000000000000e+00 0.0000000000000000e+00 0.0000000000000000e+00  3.8493545007228680e-02 7.5918766126840667e-03 2.0408054831455521e-02  1.5275958219373212e-01 5.8528575042150810e-02 2.9485603080454663e-02  3.0424189805424384e-01 8.2412379355690180e-02 2.8566501726261469e-02  4.6903934603011560e-01 8.4116054143308763e-02 2.8095680883356247e-02  6.3122137306731407e-01 8.2110720878362381e-02 2.7582156014549560e-02  7.8961649039494208e-01 8.1199773689461976e-02 2.7653495156701579e-02  9.4700183615534372e-01 8.1421168793593221e-02 2.7786361133318102e-02  1.1045382921127556e+00 8.1898001108647436e-02 2.7834219987857681e-02  1.2623417925194100e+00 8.2236912022066094e-02 2.7841582319050338e-02  1.4202714485931114e+00 8.2415235607213852e-02 2.7839193445925767e-02  1.5782341628681118e+00 8.2503290702969995e-02 2.7837801864669009e-02  1.7362005557771332e+00 8.2552316041737406e-02 2.7838094897020167e-02  1.8941679957943418e+00 8.2584029156823169e-02 2.7838868237965161e-02  2.0521383286503658e+00 8.2605527164152592e-02 2.7839464030848252e-02  2.2101118529903849e+00 8.2619699042374803e-02 2.7839793470641645e-02  2.3680877105075413e+00 8.2628652296552307e-02 2.7839957624925561e-02  2.5260649626021197e+00 8.2634112935709145e-02 2.7840044512074748e-02  2.6840429803414194e+00 8.2637304605376272e-02 2.7840095082153120e-02  2.8420214014097920e+00 8.2638970178095753e-02 2.7840122233524407e-02  2.9999999999999996e+00 8.2639488389835425e-02 2.7840131448807929e-02  0.0000000000000000e+00 0.0000000000000000e+00 0.0000000000000000e+00  3.3880306486468871e-02 3.8227323026310610e-03 1.6488897822924065e-02  1.2839611868452597e-01 6.4547721862602469e-03 3.3114967064537273e-02  2.9695424522725455e-01 1.5826949482826289e-02 2.9597807796557199e-02  4.6816996905360342e-01 1.6607994899977056e-02 2.8031894555476351e-02  6.3113125098599687e-01 1.7765027884691847e-02 2.7537710509543088e-02  7.8947809419825576e-01 1.8713953936274695e-02 2.7710113302666012e-02  9.4672493433004024e-01 1.9261578360324074e-02 2.7866472480235788e-02  1.1042815486651207e+00 1.9589411110377701e-02 2.7921648795484571e-02  1.2621682001468837e+00 1.9797741724725735e-02 2.7925318262454056e-02  1.4201698186356455e+00 1.9930659957883547e-02 2.7918470698331557e-02  1.5781760934458944e+00 2.0014710249090892e-02 2.7914692490909988e-02  1.7361655942546617e+00 2.0067871846075589e-02 2.7914055765080818e-02  1.8941457538840563e+00 2.0101527331695453e-02 2.7914458341467340e-02  2.0521239299841931e+00 2.0122793784378739e-02 2.7914820878856061e-02  2.2101026411488269e+00 2.0136188167926582e-02 2.7914967446823615e-02  2.3680819517478944e+00 2.0144574573394677e-02 2.7914998076536440e-02  2.5260614776174579e+00 2.0149747900706852e-02 2.7914998084484072e-02  2.6840410122766438e+00 2.0152813296112786e-02 2.7914997498977481e-02  2.8420205150134632e+00 2.0154424503246695e-02 2.7914998363933630e-02  2.9999999999999996e+00 2.0154926028815055e-02 2.7914999839805339e-02  0.0000000000000000e+00 0.0000000000000000e+00 0.0000000000000000e+00  3.8645176434272337e-02 -2.7733325197369743e-03 2.0884630187943495e-02  1.3864348488612091e-01 -3.7518792620105053e-02 3.0923730362909397e-02  2.9873450580936839e-01 -5.4840481860181894e-02 2.9083226209435126e-02  4.6717409331808080e-01 -5.1065707764760854e-02 2.7868288508921889e-02  6.2955024725388931e-01 -4.6533877332515836e-02 2.7813182304967377e-02  7.8842390167144849e-01 -4.3869938935247488e-02 2.7914830317412556e-02  9.4626209023378771e-01 -4.2982219323392516e-02 2.7980005880289503e-02  1.1040820720837883e+00 -4.2768539443970167e-02 2.8004038052219613e-02  1.2620530976547029e+00 -4.2670578031753469e-02 2.8002354385595937e-02  1.4200886332118019e+00 -4.2572201751967680e-02 2.7996015143350116e-02  1.5781187244649981e+00 -4.2485340367729239e-02 2.7992257834543486e-02  1.7361275672315331e+00 -4.2423774634877953e-02 2.7990925625367161e-02  1.8941218194071512e+00 -4.2385549968377685e-02 2.7990547810577849e-02  2.0521091696980700e+00 -4.2362861067665118e-02 2.7990364998580194e-02  2.2100935211448505e+00 -4.2349187929753097e-02 2.7990202031018614e-02  2.3680762969395555e+00 -4.2340700389956284e-02 2.7990065752461300e-02  2.5260580286242438e+00 -4.2335401691276128e-02 2.7989971463187938e-02  2.6840390447231846e+00 -4.2332218702736839e-02 2.7989915385319183e-02  2.8420196237903164e+00 -4.2330533751288542e-02 2.7989886418682740e-02  2.9999999999999996e+00 -4.2330009394278736e-02 2.7989877600636058e-02  0.0000000000000000e+00 0.0000000000000000e+00 0.0000000000000000e+00  5.8225875653195418e-02 -2.2480291084687624e-02 2.5602563922043919e-02  1.7550372680178616e-01 -8.6519367897115715e-02 2.5543791247995943e-02  3.0931251154346689e-01 -1.1931146427209113e-01 2.6185008106431037e-02  4.6587441610014702e-01 -1.1715827383759038e-01 2.7935626972914303e-02  6.2667434156359469e-01 -1.1055680297284948e-01 2.8256133427111519e-02  7.8671514805596154e-01 -1.0681779642822148e-01 2.8208982685508689e-02  9.4564994031687999e-01 -1.0551044034169960e-01 2.8125428658811159e-02  1.1039150575494088e+00 -1.0523033834699508e-01 2.8087815108640977e-02  1.2619806358004881e+00 -1.0516302340408493e-01 2.8075989131969310e-02  1.4200229945028002e+00 -1.0508151908802454e-01 2.8072401948560442e-02  1.5780616236312921e+00 -1.0499161786439966e-01 2.8070364391566301e-02  1.7360868420155522e+00 -1.0492192086031298e-01 2.8068551346773201e-02  1.8940963119617518e+00 -1.0487769939790864e-01 2.8067098544990749e-02  2.0520939523065329e+00 -1.0485179215235890e-01 2.8066120410005876e-02  2.2100843635157252e+00 -1.0483651850296072e-01 2.8065528230547393e-02  2.3680706584624267e+00 -1.0482715274660187e-01 2.8065181178843664e-02  2.5260545698953152e+00 -1.0482130601863175e-01 2.8064976145789587e-02  2.6840370560497262e+00 -1.0481777575909398e-01 2.8064855724297726e-02  2.8420187186674744e+00 -1.0481589832344362e-01 2.8064791606800341e-02  2.9999999999999996e+00 -1.0481531504211029e-01 2.8064770389962131e-02  0.0000000000000000e+00 0.0000000000000000e+00 0.0000000000000000e+00  1.0540175405412033e-01 -6.8490921303982585e-02 2.4041089045824290e-02  2.1874102798421535e-01 -1.3712782247118002e-01 2.0642067899711961e-02  3.2620313752042163e-01 -1.7246041678541382e-01 2.3068831680177732e-02  4.6417099918294424e-01 -1.7959914998867441e-01 2.7995793796658446e-02  6.2316458377892880e-01 -1.7447456436915859e-01 2.8690992195724602e-02  7.8479955151806180e-01 -1.7029694769854317e-01 2.8508507119109343e-02  9.4496659434720343e-01 -1.6839564943463542e-01 2.8299450192241591e-02  1.1037495777254098e+00 -1.6781702655413994e-01 2.8186691284710356e-02  1.2619223988389794e+00 -1.6767509635477429e-01 2.8151997747554780e-02  1.4199633124252908e+00 -1.6759038238707166e-01 2.8148243253627112e-02  1.5780046782992496e+00 -1.6750115998471685e-01 2.8148184827237428e-02  1.7360449549751362e+00 -1.6742604766338154e-01 2.8146326085174481e-02  1.8940700255834211e+00 -1.6737501530901219e-01 2.8143905312690461e-02  2.0520784233284846e+00 -1.6734405126924404e-01 2.8142066340431062e-02  2.2100751076861838e+00 -1.6732576352260967e-01 2.8140962253973851e-02  2.3680649787529759e+00 -1.6731472063017008e-01 2.8140353876923062e-02  2.5260510800529832e+00 -1.6730791810854459e-01 2.8140014395109835e-02  2.6840350429224862e+00 -1.6730382843123640e-01 2.8139819363409663e-02  2.8420177992324933e+00 -1.6730164981195234e-01 2.8139715128763915e-02  2.9999999999999996e+00 -1.6730096953132517e-01 2.8139679367641515e-02  0.0000000000000000e+00 0.0000000000000000e+00 0.0000000000000000e+00  1.1997983050628376e-01 9.0400648792949942e-02 1.4636922403651657e-02  2.3017080468131426e-01 1.5443389452471878e-01 1.2852121489126303e-02  3.4065647294218904e-01 1.9489963418907566e-01 1.3610196041450629e-02  4.7429647833606808e-01 2.0914193762889799e-01 1.5849273125536301e-02  6.2828815322299325e-01 2.0920938100060008e-01 1.6608441297455367e-02  7.8804116118350476e-01 2.0694750620022681e-01 1.6570377467036223e-02  9.4714995132724766e-01 2.0625448161494342e-01 1.6437218011384615e-02  1.1051528262074950e+00 2.0655663222361231e-01 1.6383407580175733e-02  1.2628053592389339e+00 2.0699344270044698e-01 1.6379239720643781e-02  1.4205186299388475e+00 2.0727410920078063e-01 1.6387204809898720e-02  1.5783547629981149e+00 2.0741426579381433e-01 1.6392970258281132e-02  1.7362660705976958e+00 2.0748307858825485e-01 1.6395297951643118e-02  1.8942098277121209e+00 2.0752257082645495e-01 1.6396005139854421e-02  2.0521667326543436e+00 2.0754875111747481e-01 1.6396294044692814e-02  2.2101306617910894e+00 2.0756654699245067e-01 1.6396532039955138e-02  2.3680995779645388e+00 2.0757815102464314e-01 1.6396740890380831e-02  2.5260720991550709e+00 2.0758533006176505e-01 1.6396893360695847e-02  2.6840469720354614e+00 2.0758952267820774e-01 1.6396987505171757e-02  2.8420231880515043e+00 2.0759169567483995e-01 1.6397036115452991e-02  2.9999999999999996e+00 2.0759236733626008e-01 1.6397050976474759e-02  0.0000000000000000e+00 0.0000000000000000e+00 0.0000000000000000e+00  6.8285437255867387e-02 3.6551012743692900e-02 1.4894734514134703e-02  1.8939521525401670e-01 1.0752241846093812e-01 1.4762015648913484e-02  3.2099018880739943e-01 1.4249417448004487e-01 1.5315794947458173e-02  4.7128133709368908e-01 1.4885600413105279e-01 1.6366741324173872e-02  6.3003037470721557e-01 1.4600400979792102e-01 1.6527511964630408e-02  7.8899437338786138e-01 1.4390056619191952e-01 1.6480945749592590e-02  9.4711236229663265e-01 1.4371615388303818e-01 1.6462300279066235e-02  1.1048368192382880e+00 1.4420180715551270e-01 1.6459958699891405e-02  1.2625629293446003e+00 1.4462459340040856e-01 1.6463684070463818e-02  1.4203907710764230e+00 1.4485338613410309e-01 1.6467415564135515e-02  1.5782937964165944e+00 1.4495975890634624e-01 1.6469492555727730e-02  1.7362335456752498e+00 1.4501371980632091e-01 1.6470473239600700e-02  1.8941890633019765e+00 1.4504735366320026e-01 1.6470978336086104e-02  2.0521525188694905e+00 1.4507056597154847e-01 1.6471302337269702e-02  2.2101211941514181e+00 1.4508627749014952e-01 1.6471531881984539e-02  2.3680935944392161e+00 1.4509634591707957e-01 1.6471689389247812e-02  2.5260685045669757e+00 1.4510249622852214e-01 1.6471790320786543e-02  2.6840449651094276e+00 1.4510607425780159e-01 1.6471850354571826e-02  2.8420222915364208e+00 1.4510793247718740e-01 1.6471881314349544e-02  2.9999999999999996e+00 1.4510851075558331e-01 1.6471891093777127e-02  0.0000000000000000e+00 0.0000000000000000e+00 0.0000000000000000e+00  3.7345138920828309e-02 7.9113672578202503e-03 1.2245807539951340e-02  1.5306353293723174e-01 5.8530573953842154e-02 1.7557704805145794e-02  3.0434896467529093e-01 8.2095925431023287e-02 1.6938409279968546e-02  4.6914601463642241e-01 8.4000875025524474e-02 1.6704447577050655e-02  6.3124354387221426e-01 8.2098680172263766e-02 1.6378214772207009e-02  7.8960650767032037e-01 8.1204039165587050e-02 1.6429665544534240e-02  9.4699320078628269e-01 8.1413608937478663e-02 1.6513353312525441e-02  1.1045356186486419e+00 8.1882596585278730e-02 1.6542267581669622e-02  1.2623417432768809e+00 8.2219867671648392e-02 1.6547148192431665e-02  1.4202717918695638e+00 8.2398824921428887e-02 1.6545883550164807e-02  1.5782343112925954e+00 8.2487578466524436e-02 1.6545154489464503e-02  1.7362005527693134e+00 8.2536932052479792e-02 1.6545403109414880e-02  1.8941679549069284e+00 8.2568747516802224e-02 1.6545911120691564e-02  2.0521382988354637e+00 8.2590276894116077e-02 1.6546293564491964e-02  2.2101118386872369e+00 8.2604469666732225e-02 1.6546504810631881e-02  2.3680877045420030e+00 8.2613442484508665e-02 1.6546610723239017e-02  2.5260649597984175e+00 8.2618918580061693e-02 1.6546667021110524e-02  2.6840429788473470e+00 8.2622120340673164e-02 1.6546699679109864e-02  2.8420214008013689e+00 8.2623791461680030e-02 1.6546717249376029e-02  2.9999999999999996e+00 8.2624311390515875e-02 1.6546723080290756e-02  0.0000000000000000e+00 0.0000000000000000e+00 0.0000000000000000e+00  3.2936748481361106e-02 3.7512452785180856e-03 9.9089090173120481e-03  1.2796682597363440e-01 6.4447115544499943e-03 1.9768655609597001e-02  2.9729323622240789e-01 1.5706194883250528e-02 1.7587616681418731e-02  4.6830191527909071e-01 1.6554297364329545e-02 1.6689022744679576e-02  6.3114295723932057e-01 1.7739824363642839e-02 1.6377411825497904e-02  7.8945886347513872e-01 1.8693880442883875e-02 1.6495763110644900e-02  9.4671328848241698e-01 1.9245257149559374e-02 1.6588828305483330e-02  1.1042791373816703e+00 1.9573129854239372e-02 1.6623386929923427e-02  1.2621689141725618e+00 1.9781431048888097e-02 1.6626733570525864e-02  1.4201706114683164e+00 1.9914625107042314e-02 1.6623083678406488e-02  1.5781764066294164e+00 1.9999000622513627e-02 1.6621067787174492e-02  1.7361656394422964e+00 2.0052388300272877e-02 1.6620816411686144e-02  1.8941457354391060e+00 2.0086172894765580e-02 1.6621133216619777e-02  2.0521239198840071e+00 2.0107511111761879e-02 1.6621395093853117e-02  2.2101026434569282e+00 2.0120947913528552e-02 1.6621508834730282e-02  2.3680819573724574e+00 2.0129361065532873e-02 1.6621541897667211e-02  2.5260614817908338e+00 2.0134551513804534e-02 1.6621550084714016e-02  2.6840410144466080e+00 2.0137627468784662e-02 1.6621554141445147e-02  2.8420205157499638e+00 2.0139244574803636e-02 1.6621556935881417e-02  2.9999999999999996e+00 2.0139747994975823e-02 1.6621558417550236e-02  0.0000000000000000e+00 0.0000000000000000e+00 0.0000000000000000e+00  3.7875022724069764e-02 -3.2611100812783935e-03 1.2457203216910909e-02  1.3816324115188761e-01 -3.7154167790524557e-02 1.8524574402054208e-02  2.9912155082851949e-01 -5.4589847659074889e-02 1.7313812464370745e-02  4.6725255346148725e-01 -5.1081935706823303e-02 1.6629507316275893e-02  6.2954614893827809e-01 -4.6583373759666299e-02 1.6589295281690911e-02  7.8841040086156733e-01 -4.3910451530122456e-02 1.6650922424437699e-02  9.4625562622682036e-01 -4.3007298110672512e-02 1.6687848691295026e-02  1.1040815473162287e+00 -4.2786102089158402e-02 1.6703837165851131e-02  1.2620541696876451e+00 -4.2686354503215986e-02 1.6703347116977803e-02  1.4200894483414366e+00 -4.2587918351779698e-02 1.6699813338065264e-02  1.5781190686152802e+00 -4.2501069615003780e-02 1.6697685310458812e-02  1.7361276734015363e+00 -4.2439373313992473e-02 1.6696944741962216e-02  1.8941218586549031e+00 -4.2400989514783029e-02 1.6696753099257992e-02  2.0521091986004385e+00 -4.2378185182649748e-02 1.6696665499391042e-02  2.2100935458796394e+00 -4.2364445128874099e-02 1.6696581405369150e-02  2.3680763149219950e+00 -4.2355921439663831e-02 1.6696507603355962e-02  2.5260580397366605e+00 -4.2350602554734315e-02 1.6696455449656495e-02  2.6840390506514349e+00 -4.2347407745308860e-02 1.6696424164383186e-02  2.8420196260408104e+00 -4.2345716182545796e-02 1.6696408062968481e-02  2.9999999999999996e+00 -4.2345189590784239e-02 1.6696403030979377e-02  0.0000000000000000e+00 0.0000000000000000e+00 0.0000000000000000e+00  5.7978978429624212e-02 -2.2666190827700858e-02 1.5309285416191542e-02  1.7567954459020599e-01 -8.6266785455700074e-02 1.5357007766825843e-02  3.0925593260504297e-01 -1.1887093291595284e-01 1.5655695269679148e-02  4.6585510327494106e-01 -1.1709483914007053e-01 1.6733407392810477e-02  6.2666555980480698e-01 -1.1061255864378416e-01 1.6901185431253872e-02  7.8671728542525399e-01 -1.0686813731431380e-01 1.6860980342158265e-02  9.4565409874963013e-01 -1.0554261700465335e-01 1.6809563778577844e-02  1.1039174686524444e+00 -1.0525025139806994e-01 1.6786191682489768e-02  1.2619817313250119e+00 -1.0517892215995082e-01 1.6778616234594576e-02  1.4200235081192283e+00 -1.0509702831824118e-01 1.6776249636428389e-02  1.5780619046724307e+00 -1.0500729956059615e-01 1.6774861376142227e-02  1.7360870268068673e+00 -1.0493757485067036e-01 1.6773661322299863e-02  1.8940964390226758e+00 -1.0489320118358735e-01 1.6772725708726968e-02  2.0520940357000121e+00 -1.0486715482322263e-01 1.6772105592590434e-02  2.2100844154383994e+00 -1.0485179480533810e-01 1.6771733255747517e-02  2.3680706897411561e+00 -1.0484238317257287e-01 1.6771515873753268e-02  2.5260545882469749e+00 -1.0483651235116138e-01 1.6771387754174132e-02  2.6840370660766153e+00 -1.0483296869735906e-01 1.6771312711646787e-02  2.8420187227749656e+00 -1.0483108395804173e-01 1.6771272921354982e-02  2.9999999999999996e+00 -1.0483049795241182e-01 1.6771259693274660e-02  0.0000000000000000e+00 0.0000000000000000e+00 0.0000000000000000e+00  1.0580298791089518e-01 -6.9168032688109032e-02 1.5062131924701449e-02  2.1914345508482616e-01 -1.3688533131779221e-01 1.2494165307221019e-02  3.2596045086248260e-01 -1.7179076415944761e-01 1.3844996499264631e-02  4.6401998260018967e-01 -1.7955153081327349e-01 1.6894303302659251e-02  6.2313874261406199e-01 -1.7452886032867584e-01 1.7179379432026343e-02  7.8481018383392676e-01 -1.7035093536794693e-01 1.7075563102265007e-02  9.4497717470643827e-01 -1.6843093526152095e-01 1.6947278534783065e-02  1.1037543433112842e+00 -1.6783876642209589e-01 1.6877739389222480e-02  1.2619238566152116e+00 -1.6769128914268536