<?xml version="1.0"?>
<VTKFile type="UnstructuredGrid"  version="0.1"  >
<UnstructuredGrid>
<Piece  NumberOfPoints="588" NumberOfCells="2160">
<Points>
<DataArray  type="Float64"  NumberOfComponents="3"  format="ascii">0 0 0  0.5 0 0  1 0 0  1.5 0 0  2 0 0  2.5 0 0  3 0 0  3.5 0 0  4 0 0  4.5 0 0  5 0 0  5.5 0 0  6 0 0  6.5 0 0  7 0 0  7.5 0 0  8 0 0  8.5 0 0  9 0 0  9.5 0 0  10 0 0  0 0.5 0  0.5 0.5 0  1 0.5 0  1.5 0.5 0  2 0.5 0  2.5 0.5 0  3 0.5 0  3.5 0.5 0  4 0.5 0  4.5 0.5 0  5 0.5 0  5.5 0.5 0  6 0.5 0  6.5 0.5 0  7 0.5 0  7.5 0.5 0  8 0.5 0  8.5 0.5 0  9 0.5 0  9.5 0.5 0  10 0.5 0  0 1 0  0.5 1 0  1 1 0  1.5 1 0  2 1 0  2.5 1 0  3 1 0  3.5 1 0  4 1 0  4.5 1 0  5 1 0  5.5 1 0  6 1 0  6.5 1 0  7 1 0  7.5 1 0  8 1 0  8.5 1 0  9 1 0  9.5 1 0  10 1 0  0 1.5 0  0.5 1.5 0  1 1.5 0  1.5 1.5 0  2 1.5 0  2.5 1.5 0  3 1.5 0  3.5 1.5 0  4 1.5 0  4.5 1.5 0  5 1.5 0  5.5 1.5 0  6 1.5 0  6.5 1.5 0  7 1.5 0  7.5 1.5 0  8 1.5 0  8.5 1.5 0  9 1.5 0  9.5 1.5 0  10 1.5 0  0 2 0  0.5 2 0  1 2 0  1.5 2 0  2 2 0  2.5 2 0  3 2 0  3.5 2 0  4 2 0  4.5 2 0  5 2 0  5.5 2 0  6 2 0  6.5 2 0  7 2 0  7.5 2 0  8 2 0  8.5 2 0  9 2 0  9.5 2 0  10 2 0  0 2.5 0  0.5 2.5 0  1 2.5 0  1.5 2.5 0  2 2.5 0  2.5 2.5 0  3 2.5 0  3.5 2.5 0  4 2.5 0  4.5 2.5 0  5 2.5 0  5.5 2.5 0  6 2.5 0  6.5 2.5 0  7 2.5 0  7.5 2.5 0  8 2.5 0  8.5 2.5 0  9 2.5 0  9.5 2.5 0  10 2.5 0  0 3 0  0.5 3 0  1 3 0  1.5 3 0  2 3 0  2.5 3 0  3 3 0  3.5 3 0  4 3 0  4.5 3 0  5 3 0  5.5 3 0  6 3 0  6.5 3 0  7 3 0  7.5 3 0  8 3 0  8.5 3 0  9 3 0  9.5 3 0  10 3 0  0 0 0.1666666666666667  0.5 0 0.1666666666666667  1 0 0.1666666666666667  1.5 0 0.1666666666666667  2 0 0.1666666666666667  2.5 0 0.1666666666666667  3 0 0.1666666666666667  3.5 0 0.1666666666666667  4 0 0.1666666666666667  4.5 0 0.1666666666666667  5 0 0.1666666666666667  5.5 0 0.1666666666666667  6 0 0.1666666666666667  6.5 0 0.1666666666666667  7 0 0.1666666666666667  7.5 0 0.1666666666666667  8 0 0.1666666666666667  8.5 0 0.1666666666666667  9 0 0.1666666666666667  9.5 0 0.1666666666666667  10 0 0.1666666666666667  0 0.5 0.1666666666666667  0.5 0.5 0.1666666666666667  1 0.5 0.1666666666666667  1.5 0.5 0.1666666666666667  2 0.5 0.1666666666666667  2.5 0.5 0.1666666666666667  3 0.5 0.1666666666666667  3.5 0.5 0.1666666666666667  4 0.5 0.1666666666666667  4.5 0.5 0.1666666666666667  5 0.5 0.1666666666666667  5.5 0.5 0.1666666666666667  6 0.5 0.1666666666666667  6.5 0.5 0.1666666666666667  7 0.5 0.1666666666666667  7.5 0.5 0.1666666666666667  8 0.5 0.1666666666666667  8.5 0.5 0.1666666666666667  9 0.5 0.1666666666666667  9.5 0.5 0.1666666666666667  10 0.5 0.1666666666666667  0 1 0.1666666666666667  0.5 1 0.1666666666666667  1 1 0.1666666666666667  1.5 1 0.1666666666666667  2 1 0.1666666666666667  2.5 1 0.1666666666666667  3 1 0.1666666666666667  3.5 1 0.1666666666666667  4 1 0.1666666666666667  4.5 1 0.1666666666666667  5 1 0.1666666666666667  5.5 1 0.1666666666666667  6 1 0.1666666666666667  6.5 1 0.1666666666666667  7 1 0.1666666666666667  7.5 1 0.1666666666666667  8 1 0.1666666666666667  8.5 1 0.1666666666666667  9 1 0.1666666666666667  9.5 1 0.1666666666666667  10 1 0.1666666666666667  0 1.5 0.1666666666666667  0.5 1.5 0.1666666666666667  1 1.5 0.1666666666666667  1.5 1.5 0.1666666666666667  2 1.5 0.1666666666666667  2.5 1.5 0.1666666666666667  3 1.5 0.1666666666666667  3.5 1.5 0.1666666666666667  4 1.5 0.1666666666666667  4.5 1.5 0.1666666666666667  5 1.5 0.1666666666666667  5.5 1.5 0.1666666666666667  6 1.5 0.1666666666666667  6.5 1.5 0.1666666666666667  7 1.5 0.1666666666666667  7.5 1.5 0.1666666666666667  8 1.5 0.1666666666666667  8.5 1.5 0.1666666666666667  9 1.5 0.1666666666666667  9.5 1.5 0.1666666666666667  10 1.5 0.1666666666666667  0 2 0.1666666666666667  0.5 2 0.1666666666666667  1 2 0.1666666666666667  1.5 2 0.1666666666666667  2 2 0.1666666666666667  2.5 2 0.1666666666666667  3 2 0.1666666666666667  3.5 2 0.1666666666666667  4 2 0.1666666666666667  4.5 2 0.1666666666666667  5 2 0.1666666666666667  5.5 2 0.1666666666666667  6 2 0.1666666666666667  6.5 2 0.1666666666666667  7 2 0.1666666666666667  7.5 2 0.1666666666666667  8 2 0.1666666666666667  8.5 2 0.1666666666666667  9 2 0.1666666666666667  9.5 2 0.1666666666666667  10 2 0.1666666666666667  0 2.5 0.1666666666666667  0.5 2.5 0.1666666666666667  1 2.5 0.1666666666666667  1.5 2.5 0.1666666666666667  2 2.5 0.1666666666666667  2.5 2.5 0.1666666666666667  3 2.5 0.1666666666666667  3.5 2.5 0.1666666666666667  4 2.5 0.1666666666666667  4.5 2.5 0.1666666666666667  5 2.5 0.1666666666666667  5.5 2.5 0.1666666666666667  6 2.5 0.1666666666666667  6.5 2.5 0.1666666666666667  7 2.5 0.1666666666666667  7.5 2.5 0.1666666666666667  8 2.5 0.1666666666666667  8.5 2.5 0.1666666666666667  9 2.5 0.1666666666666667  9.5 2.5 0.1666666666666667  10 2.5 0.1666666666666667  0 3 0.1666666666666667  0.5 3 0.1666666666666667  1 3 0.1666666666666667  1.5 3 0.1666666666666667  2 3 0.1666666666666667  2.5 3 0.1666666666666667  3 3 0.1666666666666667  3.5 3 0.1666666666666667  4 3 0.1666666666666667  4.5 3 0.1666666666666667  5 3 0.1666666666666667  5.5 3 0.1666666666666667  6 3 0.1666666666666667  6.5 3 0.1666666666666667  7 3 0.1666666666666667  7.5 3 0.1666666666666667  8 3 0.1666666666666667  8.5 3 0.1666666666666667  9 3 0.1666666666666667  9.5 3 0.1666666666666667  10 3 0.1666666666666667  0 0 0.3333333333333333  0.5 0 0.3333333333333333  1 0 0.3333333333333333  1.5 0 0.3333333333333333  2 0 0.3333333333333333  2.5 0 0.3333333333333333  3 0 0.3333333333333333  3.5 0 0.3333333333333333  4 0 0.3333333333333333  4.5 0 0.3333333333333333  5 0 0.3333333333333333  5.5 0 0.3333333333333333  6 0 0.3333333333333333  6.5 0 0.3333333333333333  7 0 0.3333333333333333  7.5 0 0.3333333333333333  8 0 0.3333333333333333  8.5 0 0.3333333333333333  9 0 0.3333333333333333  9.5 0 0.3333333333333333  10 0 0.3333333333333333  0 0.5 0.3333333333333333  0.5 0.5 0.3333333333333333  1 0.5 0.3333333333333333  1.5 0.5 0.3333333333333333  2 0.5 0.3333333333333333  2.5 0.5 0.3333333333333333  3 0.5 0.3333333333333333  3.5 0.5 0.3333333333333333  4 0.5 0.3333333333333333  4.5 0.5 0.3333333333333333  5 0.5 0.3333333333333333  5.5 0.5 0.3333333333333333  6 0.5 0.3333333333333333  6.5 0.5 0.3333333333333333  7 0.5 0.3333333333333333  7.5 0.5 0.3333333333333333  8 0.5 0.3333333333333333  8.5 0.5 0.3333333333333333  9 0.5 0.3333333333333333  9.5 0.5 0.3333333333333333  10 0.5 0.3333333333333333  0 1 0.3333333333333333  0.5 1 0.3333333333333333  1 1 0.3333333333333333  1.5 1 0.3333333333333333  2 1 0.3333333333333333  2.5 1 0.3333333333333333  3 1 0.3333333333333333  3.5 1 0.3333333333333333  4 1 0.3333333333333333  4.5 1 0.3333333333333333  5 1 0.3333333333333333  5.5 1 0.3333333333333333  6 1 0.3333333333333333  6.5 1 0.3333333333333333  7 1 0.3333333333333333  7.5 1 0.3333333333333333  8 1 0.3333333333333333  8.5 1 0.3333333333333333  9 1 0.3333333333333333  9.5 1 0.3333333333333333  10 1 0.3333333333333333  0 1.5 0.3333333333333333  0.5 1.5 0.3333333333333333  1 1.5 0.3333333333333333  1.5 1.5 0.3333333333333333  2 1.5 0.3333333333333333  2.5 1.5 0.3333333333333333  3 1.5 0.3333333333333333  3.5 1.5 0.3333333333333333  4 1.5 0.3333333333333333  4.5 1.5 0.3333333333333333  5 1.5 0.3333333333333333  5.5 1.5 0.3333333333333333  6 1.5 0.3333333333333333  6.5 1.5 0.3333333333333333  7 1.5 0.3333333333333333  7.5 1.5 0.3333333333333333  8 1.5 0.3333333333333333  8.5 1.5 0.3333333333333333  9 1.5 0.3333333333333333  9.5 1.5 0.3333333333333333  10 1.5 0.3333333333333333  0 2 0.3333333333333333  0.5 2 0.3333333333333333  1 2 0.3333333333333333  1.5 2 0.3333333333333333  2 2 0.3333333333333333  2.5 2 0.3333333333333333  3 2 0.3333333333333333  3.5 2 0.3333333333333333  4 2 0.3333333333333333  4.5 2 0.3333333333333333  5 2 0.3333333333333333  5.5 2 0.3333333333333333  6 2 0.3333333333333333  6.5 2 0.3333333333333333  7 2 0.3333333333333333  7.5 2 0.3333333333333333  8 2 0.3333333333333333  8.5 2 0.3333333333333333  9 2 0.3333333333333333  9.5 2 0.3333333333333333  10 2 0.3333333333333333  0 2.5 0.3333333333333333  0.5 2.5 0.3333333333333333  1 2.5 0.3333333333333333  1.5 2.5 0.3333333333333333  2 2.5 0.3333333333333333  2.5 2.5 0.3333333333333333  3 2.5 0.3333333333333333  3.5 2.5 0.3333333333333333  4 2.5 0.3333333333333333  4.5 2.5 0.3333333333333333  5 2.5 0.3333333333333333  5.5 2.5 0.3333333333333333  6 2.5 0.3333333333333333  6.5 2.5 0.3333333333333333  7 2.5 0.3333333333333333  7.5 2.5 0.3333333333333333  8 2.5 0.3333333333333333  8.5 2.5 0.3333333333333333  9 2.5 0.3333333333333333  9.5 2.5 0.3333333333333333  10 2.5 0.3333333333333333  0 3 0.3333333333333333  0.5 3 0.3333333333333333  1 3 0.3333333333333333  1.5 3 0.3333333333333333  2 3 0.3333333333333333  2.5 3 0.3333333333333333  3 3 0.3333333333333333  3.5 3 0.3333333333333333  4 3 0.3333333333333333  4.5 3 0.3333333333333333  5 3 0.3333333333333333  5.5 3 0.3333333333333333  6 3 0.3333333333333333  6.5 3 0.3333333333333333  7 3 0.3333333333333333  7.5 3 0.3333333333333333  8 3 0.3333333333333333  8.5 3 0.3333333333333333  9 3 0.3333333333333333  9.5 3 0.3333333333333333  10 3 0.3333333333333333  0 0 0.5  0.5 0 0.5  1 0 0.5  1.5 0 0.5  2 0 0.5  2.5 0 0.5  3 0 0.5  3.5 0 0.5  4 0 0.5  4.5 0 0.5  5 0 0.5  5.5 0 0.5  6 0 0.5  6.5 0 0.5  7 0 0.5  7.5 0 0.5  8 0 0.5  8.5 0 0.5  9 0 0.5  9.5 0 0.5  10 0 0.5  0 0.5 0.5  0.5 0.5 0.5  1 0.5 0.5  1.5 0.5 0.5  2 0.5 0.5  2.5 0.5 0.5  3 0.5 0.5  3.5 0.5 0.5  4 0.5 0.5  4.5 0.5 0.5  5 0.5 0.5  5.5 0.5 0.5  6 0.5 0.5  6.5 0.5 0.5  7 0.5 0.5  7.5 0.5 0.5  8 0.5 0.5  8.5 0.5 0.5  9 0.5 0.5  9.5 0.5 0.5  10 0.5 0.5  0 1 0.5  0.5 1 0.5  1 1 0.5  1.5 1 0.5  2 1 0.5  2.5 1 0.5  3 1 0.5  3.5 1 0.5  4 1 0.5  4.5 1 0.5  5 1 0.5  5.5 1 0.5  6 1 0.5  6.5 1 0.5  7 1 0.5  7.5 1 0.5  8 1 0.5  8.5 1 0.5  9 1 0.5  9.5 1 0.5  10 1 0.5  0 1.5 0.5  0.5 1.5 0.5  1 1.5 0.5  1.5 1.5 0.5  2 1.5 0.5  2.5 1.5 0.5  3 1.5 0.5  3.5 1.5 0.5  4 1.5 0.5  4.5 1.5 0.5  5 1.5 0.5  5.5 1.5 0.5  6 1.5 0.5  6.5 1.5 0.5  7 1.5 0.5  7.5 1.5 0.5  8 1.5 0.5  8.
[...]
<PointData  Vectors="f_7-0"> 
<DataArray  type="Float64"  Name="f_7-0"  NumberOfComponents="3" format="ascii">0.0000000000000000e+00 0.0000000000000000e+00 0.0000000000000000e+00  6.1398840608140715e-01 4.9426652878005217e-01 9.0811751901119536e-02  1.5069911361033181e+00 5.4681244447861455e-01 9.2205189327383752e-02  2.4145452467256874e+00 5.5018590700748027e-01 9.2818572241899489e-02  3.3285523272615429e+00 5.5018486324879201e-01 9.2929092255605736e-02  4.2449728440752930e+00 5.5008433068542539e-01 9.2970815065361589e-02  5.1618960266132525e+00 5.5004050238695146e-01 9.2979292657239379e-02  6.0789101739389562e+00 5.5002132361935752e-01 9.2979905256578912e-02  6.9959350868574379e+00 5.5001212068779171e-01 9.2979608175882689e-02  7.9129544875075428e+00 5.5000748866762972e-01 9.2979234121067830e-02  8.8299673014136086e+00 5.5000507173809965e-01 9.2978955193446053e-02  9.7469755226992021e+00 5.5000377638950848e-01 9.2978785429979560e-02  1.0663980962402151e+01 5.5000307274302807e-01 9.2978688691554012e-02  1.1580984799921653e+01 5.5000268827218446e-01 9.2978634558887815e-02  1.2497987735595389e+01 5.5000247756398146e-01 9.2978604575046003e-02  1.3414990169745174e+01 5.5000236196090735e-01 9.2978588074806912e-02  1.4331992326950786e+01 5.5000229862669692e-01 9.2978579033646369e-02  1.5248994332282411e+01 5.5000226417628995e-01 9.2978574119531823e-02  1.6165996255586315e+01 5.5000224590786284e-01 9.2978571515547490e-02  1.7082998136671776e+01 5.5000223710557228e-01 9.2978570264470317e-02  1.8000000000000011e+01 5.5000223449720032e-01 9.2978569873849073e-02  0.0000000000000000e+00 0.0000000000000000e+00 0.0000000000000000e+00  5.9505461712586982e-01 3.2022068909707796e-01 9.4339343742704418e-02  1.4987034099869663e+00 3.6499596092026410e-01 9.3124462233575414e-02  2.4123357178138591e+00 3.6721597602802264e-01 9.3214371310770636e-02  3.3280096341579379e+00 3.6699318977662782e-01 9.3227343297685242e-02  4.2448628143597205e+00 3.6684634111081865e-01 9.3231577388564815e-02  5.1618782684192466e+00 3.6679141431598744e-01 9.3234521126413269e-02  6.0789114416036192e+00 3.6677096235391765e-01 9.3234567198917415e-02  6.9959391213202498e+00 3.6676249961918317e-01 9.3234013702924445e-02  7.9129576530983341e+00 3.6675862310549578e-01 9.3233615812404802e-02  8.8299692956311624e+00 3.6675671343754185e-01 9.3233378674049822e-02  9.7469766895048018e+00 3.6675572491200686e-01 9.3233240383541346e-02  1.0663981624093907e+01 3.6675519809584062e-01 9.3233161889858154e-02  1.1580985169407070e+01 3.6675491303062324e-01 9.3233118241235896e-02  1.2497987940256724e+01 3.6675475757101361e-01 9.3233094142172054e-02  1.3414990282543087e+01 3.6675467249649124e-01 9.3233080873327254e-02  1.4331992388746752e+01 3.6675462594744479e-01 9.3233073594076357e-02  1.5248994365638582e+01 3.6675460064275905e-01 9.3233069634383103e-02  1.6165996272729643e+01 3.6675458722912563e-01 9.3233067535184663e-02  1.7082998143905606e+01 3.6675458076236128e-01 9.3233066531431111e-02  1.8000000000000011e+01 3.6675457885623197e-01 9.3233066236627304e-02  0.0000000000000000e+00 0.0000000000000000e+00 0.0000000000000000e+00  5.8291732194695034e-01 1.5742983559428739e-01 9.7062541953918238e-02  1.4865488369863014e+00 1.8271228998891995e-01 9.3962789469111671e-02  2.4085514612965948e+00 1.8393489058770882e-01 9.3634227817278690e-02  3.3270276204266978e+00 1.8369558155030993e-01 9.3522211928644225e-02  4.2446535576176680e+00 1.8357780078596192e-01 9.3498567509571251e-02  5.1618472219707074e+00 1.8353494657403158e-01 9.3491673945283127e-02  6.0789184070342506e+00 1.8351923185702629e-01 9.3489203475411467e-02  6.9959501001174527e+00 1.8351280412913507e-01 9.3488284160682195e-02  7.9129656445494216e+00 1.8350990346163581e-01 9.3487913480890250e-02  8.8299742205278022e+00 1.8350849009870202e-01 9.3487744845452872e-02  9.7469795476508398e+00 1.8350776290307366e-01 9.3487659434999745e-02  1.0663983238465985e+01 1.8350737678577700e-01 9.3487614476672129e-02  1.1580986068979335e+01 1.8350716826575811e-01 9.3487590386136729e-02  1.2497988438035453e+01 1.8350705466651029e-01 9.3487577280928186e-02  1.3414990556760163e+01 1.8350699253478275e-01 9.3487570103672243e-02  1.4331992538940819e+01 1.8350695854917573e-01 9.3487566173409267e-02  1.5248994446703458e+01 1.8350694007672966e-01 9.3487564036682957e-02  1.6165996314398370e+01 1.8350693028529461e-01 9.3487562905157653e-02  1.7082998161481605e+01 1.8350692556237166e-01 9.3487562374770405e-02  1.8000000000000011e+01 1.8350692416088332e-01 9.3487562216081024e-02  0.0000000000000000e+00 0.0000000000000000e+00 0.0000000000000000e+00  5.7937878782124985e-01 1.1522622202562976e-03 9.7858032348390175e-02  1.4811876540010056e+00 4.4131809112550087e-04 9.4380142639875000e-02  2.4071407183505822e+00 3.3950081237333051e-04 9.3941948292255564e-02  3.3267452860344657e+00 2.9540227588427322e-04 9.3786525399639414e-02  4.2446305890311917e+00 2.8402650858548275e-04 9.3754489242784900e-02  5.1618782255098603e+00 2.7328906526170909e-04 9.3745699032655214e-02  6.0789487828644484e+00 2.6699691420048493e-04 9.3742915089001039e-02  6.9959705965914756e+00 2.6354617591883205e-04 9.3742251693820083e-02  7.9129778995686397e+00 2.6162729917019324e-04 9.3742098711589783e-02  8.8299812393335948e+00 2.6056617712332924e-04 9.3742061715362118e-02  9.7469834896898586e+00 2.5998090237869519e-04 9.3742054684637602e-02  1.0663985429176961e+01 2.5965876890426395e-04 9.3742054955432308e-02  1.1580987279872440e+01 2.5948151613911982e-04 9.3742056088188155e-02  1.2497989105434339e+01 2.5938401724467344e-04 9.3742056908411239e-02  1.3414990923689693e+01 2.5933043625548914e-04 9.3742057402600429e-02  1.4331992739714678e+01 2.5930105839848058e-04 9.3742057682323604e-02  1.5248994555017983e+01 2.5928507123042536e-04 9.3742057836232975e-02  1.6165996370065105e+01 2.5927659102391678e-04 9.3742057920556440e-02  1.7082998184984341e+01 2.5927249417503960e-04 9.3742057976252915e-02  1.8000000000000011e+01 2.5927127296099890e-04 9.3742057988950356e-02  0.0000000000000000e+00 0.0000000000000000e+00 0.0000000000000000e+00  5.8467540852477917e-01 -1.5478193926061393e-01 9.7219892834021868e-02  1.4863781641038414e+00 -1.8191857727945807e-01 9.4465805258525062e-02  2.4094389057137557e+00 -1.8325727767833763e-01 9.4071802399011806e-02  3.3275767757540078e+00 -1.8306880528645927e-01 9.3999668471092826e-02  4.2449293811958206e+00 -1.8299903473886331e-01 9.3996122625186404e-02  5.1620031084187348e+00 -1.8298397926076770e-01 9.3995898618657342e-02  6.0790052868715954e+00 -1.8298265714088838e-01 9.3995592878504661e-02  6.9959983380596542e+00 -1.8298430631028872e-01 9.3995967354054341e-02  7.9129921753302455e+00 -1.8298589145227792e-01 9.3996221694458926e-02  8.8299888300916738e+00 -1.8298694450139544e-01 9.3996364604836291e-02  9.7469875938495960e+00 -1.8298757409900021e-01 9.3996448515942355e-02  1.0663987665624601e+01 -1.8298793449257844e-01 9.3996496190536891e-02  1.1580988503978748e+01 -1.8298813667151723e-01 9.3996522526977808e-02  1.2497989776796592e+01 -1.8298824891316479e-01 9.3996537011538123e-02  1.3414991291868064e+01 -1.8298831088088441e-01 9.3996544977377264e-02  1.4331992940915425e+01 -1.8298834493632288e-01 9.3996549343740479e-02  1.5248994663496262e+01 -1.8298836349038464e-01 9.3996551719007782e-02  1.6165996425804419e+01 -1.8298837333937665e-01 9.3996552980915346e-02  1.7082998208524778e+01 -1.8298837810054450e-01 9.3996553602015198e-02  1.8000000000000011e+01 -1.8298837952295488e-01 9.3996553780976849e-02  0.0000000000000000e+00 0.0000000000000000e+00 0.0000000000000000e+00  6.0316266218540227e-01 -3.1942827028782900e-01 9.6057640798568059e-02  1.4988513038334446e+00 -3.6402317075352159e-01 9.3902294510579798e-02  2.4138042662667076e+00 -3.6638867191516900e-01 9.4045859161656073e-02  3.3289809788393079e+00 -3.6630625658544408e-01 9.4211751419026338e-02  4.2453638672746399e+00 -3.6624432895636660e-01 9.4236179248082613e-02  5.1621544853652725e+00 -3.6622698897545475e-01 9.4244777246214231e-02  6.0790644012988171e+00 -3.6622736575794690e-01 9.4248322117177333e-02  6.9960237642325964e+00 -3.6623023583602304e-01 9.4249792445246214e-02  7.9130041678974452e+00 -3.6623255501276752e-01 9.4250414012040817e-02  8.8299948889518216e+00 -3.6623404233003837e-01 9.4250711835742240e-02  9.7469907744366910e+00 -3.6623491799485808e-01 9.4250868946862687e-02  1.0663989371678113e+01 -3.6623541627700856e-01 9.4250952257693393e-02  1.1580989430284406e+01 -3.6623569477012535e-01 9.4250997093497366e-02  1.2497990282727359e+01 -3.6623584910972889e-01 9.4251021586013964e-02  1.3414991568730636e+01 -3.6623593425712386e-01 9.4251035009717266e-02  1.4331993092051487e+01 -3.6623598103094496e-01 9.4251042357779424e-02  1.5248994744940800e+01 -3.6623600650792804e-01 9.4251046354854581e-02  1.6165996467645943e+01 -3.6623602003010752e-01 9.4251048476044236e-02  1.7082998226199496e+01 -3.6623602656829002e-01 9.4251049511970400e-02  1.8000000000000011e+01 -3.6623602851818543e-01 9.4251049816692190e-02  0.0000000000000000e+00 0.0000000000000000e+00 0.0000000000000000e+00  6.3233206505307182e-01 -4.9217719036115631e-01 8.8306319133169400e-02  1.5065037854293870e+00 -5.4493981755135401e-01 9.2623182570156587e-02  2.4163784047438428e+00 -5.4926029576357849e-01 9.4436668988734637e-02  3.3297341817905854e+00 -5.4945068285513232e-01 9.4460833994309962e-02  4.2455599770503385e+00 -5.4944634638129664e-01 9.4475675941774889e-02  5.1622242383793440e+00 -5.4945908617182659e-01 9.4497753252301323e-02  6.0790914796218543e+00 -5.4946867461597537e-01 9.4502340043687558e-02  6.9960348146463378e+00 -5.4947482527511227e-01 9.4504038303476021e-02  7.9130092773254956e+00 -5.4947868383553722e-01 9.4504782151725197e-02  8.8299974348298207e+00 -5.4948089906806641e-01 9.4505148445273385e-02  9.7469920996216874e+00 -5.4948214468193191e-01 9.4505334714520328e-02  1.0663990078824451e+01 -5.4948283754922911e-01 9.4505431463560996e-02  1.1580989813193495e+01 -5.4948322066868682e-01 9.4505484092148054e-02  1.2497990491617147e+01 -5.4948343191442661e-01 9.4505512936340172e-02  1.3414991682965715e+01 -5.4948354813683309e-01 9.4505528741996733e-02  1.4331993154388162e+01 -5.4948361189475037e-01 9.4505537409503279e-02  1.5248994778527861e+01 -5.4948364660067539e-01 9.4505542133481321e-02  1.6165996484899484e+01 -5.4948366501587054e-01 9.4505544643496323e-02  1.7082998233480289e+01 -5.4948367392469888e-01 9.4505545856878398e-02  1.8000000000000011e+01 -5.4948367654474395e-01 9.4505546235462784e-02  0.0000000000000000e+00 0.0000000000000000e+00 0.0000000000000000e+00  6.1479593683045208e-01 4.9193825395949553e-01 3.1214684921083379e-02  1.5070766064972516e+00 5.4660486884022008e-01 3.1693946753520649e-02  2.4145479514314330e+00 5.5009894716341190e-01 3.1869209094790178e-02  3.3285531979309315e+00 5.5008917833831772e-01 3.1872369042431001e-02  4.2449723537842141e+00 5.4999782239832762e-01 3.1892986121429490e-02  5.1618962751786999e+00 5.4995568457623267e-01 3.1896932706325008e-02  6.0789102968993909e+00 5.4993649857959637e-01 3.1896628798473103e-02  6.9959351104968830e+00 5.4992731084930824e-01 3.1896419813031464e-02  7.9129544984331996e+00 5.4992268177789461e-01 3.1896273590843703e-02  8.8299673082122343e+00 5.4992025525605337e-01 3.1896162887889802e-02  9.7469755261017941e+00 5.4991895277007830e-01 3.1896097028966432e-02  1.0663980964111131e+01 5.4991824524285571e-01 3.1896060923430045e-02  1.1580984800833884e+01 5.4991785862686760e-01 3.1896041133289157e-02  1.2497987736088431e+01 5.4991764673393850e-01 3.1896030297467452e-02  1.3414990170010785e+01 5.4991753048838055e-01 3.1896024391590332e-02  1.4331992327092884e+01 5.4991746680758558e-01 3.1896021179460568e-02  1.5248994332355940e+01 5.4991743217077871e-01 3.1896019442355081e-02  1.6165996255618030e+01 5.4991741380531889e-01 3.1896018525350650e-02  1.7082998136676022e+01 5.4991740495535657e-01 3.1896018084388113e-02  1.8000000000000011e+01 5.4991740231896280e-01 3.1896017938795880e-02  0.0000000000000000e+00 0.0000000000000000e+00 0.0000000000000000e+00  5.9652627464056163e-01 3.1953289387413358e-01 3.2885804894565704e-02  1.4991682765868766e+00 3.6468928016235458e-01 3.2056070702424264e-02  2.4122770720840983e+00 3.6709255164656568e-01 3.2137174184583971e-02  3.3280069199619380e+00 3.6689416844011791e-01 3.2154680239942154e-02  4.2448652191535334e+00 3.6675902276415817e-01 3.2150861928527417e-02  5.1618786988101455e+00 3.6670630534717513e-01 3.2151181477351194e-02  6.0789114952257401e+00 3.6668610258871992e-01 3.2151115091638434e-02  6.9959391427122570e+00 3.6667770111853443e-01 3.2150869404670469e-02  7.9129576677717592e+00 3.6667382794570413e-01 3.2150711312143067e-02  8.8299693022069956e+00 3.6667190529813498e-01 3.2150624115662170e-02  9.7469766923989454e+00 3.6667090655872897e-01 3.2150574988687675e-02  1.0663981625586379e+01 3.6667037366306637e-01 3.2150547495015870e-02  1.1580985170209571e+01 3.6667008511548504e-01 3.2150532360779908e-02  1.2497987940686333e+01 3.6666992770674128e-01 3.2150524065816193e-02  1.3414990282774326e+01 3.6666984156030868e-01 3.2150519519355297e-02  1.4331992388871145e+01 3.6666979442613706e-01 3.2150517032492033e-02  1.5248994365703597e+01 3.6666976880462548e-01 3.2150515682435911e-02  1.6165996272759347e+01 3.6666975522365641e-01 3.2150514967972853e-02  1.7082998143911993e+01 3.6666974867594632e-01 3.2150514627212148e-02  1.8000000000000011e+01 3.6666974673904990e-01 3.2150514526300217e-02  0.0000000000000000e+00 0.0000000000000000e+00 0.0000000000000000e+00  5.8471770434030457e-01 1.5701499890753237e-01 3.3650873806312501e-02  1.4870082639386228e+00 1.8247903504664265e-01 3.2572697707810017e-02  2.4085053845488225e+00 1.8381097391752546e-01 3.2449327048931054e-02  3.3270268735183692e+00 1.8360481592156172e-01 3.2419091323466792e-02  4.2446581076865026e+00 1.8349185220308115e-01 3.2409241976164557e-02  5.1618471558205945e+00 1.8344986237663410e-01 3.2406231507521373e-02  6.0789183941369496e+00 1.8343443868814516e-01 3.2405513658499543e-02  6.9959501313294625e+00 1.8342805672612247e-01 3.2405239267029637e-02  7.9129656547367473e+00 1.8342513064059626e-01 3.2405119363466801e-02  8.8299742220230204e+00 1.8342369337596282e-01 3.2405067404313460e-02  9.7469795480352381e+00 1.8342295109298362e-01 3.2405041519524544e-02  1.0663983238679226e+01 1.8342255600877741e-01 3.2405027579390421e-02  1.1580986069061128e+01 1.8342234236980148e-01 3.2405019995877853e-02  1.2497988438065670e+01 1.8342222592197108e-01 3.2405015833449055e-02  1.3414990556774244e+01 1.8342216222035290e-01 3.2405013534482816e-02  1.4331992538947647e+01 1.8342212737377511e-01 3.2405012266874533e-02  1.5248994446706117e+01 1.8342210843337944e-01 3.2405011574388402e-02  1.6165996314397788e+01 1.8342209839422982e-01 3.2405011207023320e-02  1.7082998161478201e+01 1.8342209355209538e-01 3.2405011034697263e-02  1.8000000000000011e+01 1.8342209211534663e-01 3.2405010982072310e-02  0.0000000000000000e+00 0.0000000000000000e+00 0.0000000000000000e+00  5.8127300731852516e-01 1.0990802033777863e-03 3.3921054167279897e-02  1.4815228122601796e+00 3.0862231839880378e-04 3.2911224227634754e-02  2.4071642057720712e+00 2.6185013346531199e-04 3.2730289804692322e-02  3.3267343766408839e+00 2.1730346453137719e-04 3.2668976295391006e-02  4.2446342265046573e+00 2.0029350694454807e-04 3.2663107215281893e-02  5.1618776256382688e+00 1.8887581595679638e-04 3.2660336073059140e-02  6.0789487407310920e+00 1.8245675884291012e-04 3.2659644569375972e-02  6.9959706159543620e+00 1.7886720888730893e-04 3.2659519119381905e-02  7.9129778928998160e+00 1.7687219955189637e-04 3.2659498286218905e-02  8.8299812343303454e+00 1.7577570684027894e-04 3.2659499369793746e-02  9.7469834875083414e+00 1.7517168211167455e-04 3.2659502455710060e-02  1.0663985428005436e+01 1.7483913872486692e-04 3.2659504716947799e-02  1.1580987279193389e+01 1.7465618985751041e-04 3.2659506018263396e-02  1.2497989105059011e+01 1.7455558031488860e-04 3.2659506693280514e-02  1.3414990923485330e+01 1.7450029208694603e-04 3.2659507036040404e-02  1.4331992739603233e+01 1.7446997822549373e-04 3.2659507210718315e-02  1.5248994554957989e+01 1.7445348205610779e-04 3.2659507300227673e-02  1.6165996370034392e+01 1.7444473214585940e-04 3.2659507346870752e-02  1.7082998184971952e+01 1.7444050633515172e-04 3.2659507372467735e-02  1.8000000000000011e+01 1.7443924994951115e-04 3.2659507378261059e-02  0.0000000000000000e+00 0.0000000000000000e+00 0.0000000000000000e+00  5.8655230777617329e-01 -1.5469663773662923e-01 3.3976320710849925e-02  1.4866848061053928e+00 -1.8189418576146887e-01 3.3142158948157883e-02  2.4094753223380074e+00 -1.8328819609698521e-01 3.2930044589293037e-02  3.3275551727403112e+00 -1.8314426758117677e-01 3.2906464088528799e-02  4.2449321539260847e+00 -1.8308102527058201e-01 3.2913316496008309e-02  5.1620023295707975e+00 -1.8306754200439351e-01 3.2913417923578499e-02  6.0790051794437288e+00 -1.8306706301902984e-01 3.2913536790268351e-02  6.9959983305811786e+00 -1.8306897297306296e-01 3.2913765287160897e-02  7.9129921508516734e+00 -1.8307064819745197e-01 3.2913876191924180e-02  8.8299888209510851e+00 -1.8307173861309334e-01 3.2913934586535104e-02  9.7469875897201383e+00 -1.8307238636454426e-01 3.2913966251975853e-02  1.0663987663317231e+01 -1.8307275605217127e-01 3.2913983597598027e-02  1.1580988502714050e+01 -1.8307296308309112e-01 3.2913992960142843e-02  1.2497989776114926e+01 -1.8307307794968450e-01 3.2913998023945117e-02  1.3414991291497497e+01 -1.8307314135513900e-01 3.2914000780067010e-02  1.4331992940713659e+01 -1.8307317619772817e-01 3.2914002280172952e-02  1.5248994663388590e+01 -1.8307319518010720e-01 3.2914003092102941e-02  1.6165996425751132e+01 -1.8307320525613657e-01 3.2914003522256902e-02  1.7082998208506016e+01 -1.8307321012635516e-01 3.2914003731940734e-02  1.8000000000000011e+01 -1.8307321157714485e-01 3.2914003792156796e-02  0.0000000000000000e+00 0.0000000000000000e+00 0.0000000000000000e+00  6.0534333570288446e-01 -3.1856149374188530e-01 3.4145352441008379e-02  1.4990306511907097e+00 -3.6384817876326031e-01 3.3046334659943555e-02  2.4138576027193945e+00 -3.6645429057496653e-01 3.3082419103722546e-02  3.3289591858965126e+00 -3.6638434190188091e-01 3.3155822928459353e-02  4.2453631660465936e+00 -3.6632562292437165e-01 3.3163643689392716e-02  5.1621542282560755e+00 -3.6631115596535435e-01 3.3166504800264875e-02  6.0790642992170421e+00 -3.6631195803804162e-01 3.3167639831478482e-02  6.9960237255885600e+00 -3.6631497180426115e-01 3.3168104420902469e-02  7.9130041401029478e+00 -3.6631734450005976e-01 3.3168299000616693e-02  8.8299948797177983e+00 -3.6631885310968404e-01 3.3168392222560864e-02  9.7469907697241851e+00 -3.6631973924993461e-01 3.3168442288181610e-02  1.0663989368947869e+01 -3.6632024253692480e-01 3.3168468876095571e-02  1.1580989428820203e+01 -3.6632052370295348e-01 3.3168483246486337e-02  1.2497990281940833e+01 -3.6632067952129010e-01 3.3168491146973782e-02  1.3414991568299122e+01 -3.6632076548279652e-01 3.3168495491755899e-02  1.4331993091816011e+01 -3.6632081270575972e-01 3.3168497875333096e-02  1.5248994744815777e+01 -3.6632083842910168e-01 3.3168499174226374e-02  1.6165996467585636e+01 -3.6632085208267695e-01 3.3168499864207140e-02  1.7082998226179896e+01 -3.6632085868330555e-01 3.3168500200895540e-02  1.8000000000000011e+01 -3.6632086064864211e-01 3.3168500302437939e-02  0.0000000000000000e+00 0.0000000000000000e+00 0.0000000000000000e+00  6.3121495584682930e-01 -4.9088707273906662e-01 3.0917159494105409e-02  1.5071427579900258e+00 -5.4464248174225738e-01 3.2796986911956115e-02  2.4164212503172187e+00 -5.4944413413809312e-01 3.3480861666771541e-02  3.3296798719214213e+00 -5.4952174440861856e-01 3.3404980089912092e-02  4.2455604888315124e+00 -5.4952736308935879e-01 3.3414892444052158e-02  5.1622252299796187e+00 -5.4954424053965645e-01 3.3421771461795736e-02  6.0790911461964461e+00 -5.4955334950458412e-01 3.3422125876823382e-02  6.9960347559900011e+00 -5.4955962501404698e-01 3.3422617013364429e-02  7.9130092544263011e+00 -5.4956349009525429