<?xml version="1.0"?>
<VTKFile type="UnstructuredGrid"  version="0.1"  >
<UnstructuredGrid>
<Piece  NumberOfPoints="882" NumberOfCells="3600">
<Points>
<DataArray  type="Float64"  NumberOfComponents="3"  format="ascii">0 0 0  0.5 0 0  1 0 0  1.5 0 0  2 0 0  2.5 0 0  3 0 0  3.5 0 0  4 0 0  4.5 0 0  5 0 0  5.5 0 0  6 0 0  6.5 0 0  7 0 0  7.5 0 0  8 0 0  8.5 0 0  9 0 0  9.5 0 0  10 0 0  0 0.5 0  0.5 0.5 0  1 0.5 0  1.5 0.5 0  2 0.5 0  2.5 0.5 0  3 0.5 0  3.5 0.5 0  4 0.5 0  4.5 0.5 0  5 0.5 0  5.5 0.5 0  6 0.5 0  6.5 0.5 0  7 0.5 0  7.5 0.5 0  8 0.5 0  8.5 0.5 0  9 0.5 0  9.5 0.5 0  10 0.5 0  0 1 0  0.5 1 0  1 1 0  1.5 1 0  2 1 0  2.5 1 0  3 1 0  3.5 1 0  4 1 0  4.5 1 0  5 1 0  5.5 1 0  6 1 0  6.5 1 0  7 1 0  7.5 1 0  8 1 0  8.5 1 0  9 1 0  9.5 1 0  10 1 0  0 1.5 0  0.5 1.5 0  1 1.5 0  1.5 1.5 0  2 1.5 0  2.5 1.5 0  3 1.5 0  3.5 1.5 0  4 1.5 0  4.5 1.5 0  5 1.5 0  5.5 1.5 0  6 1.5 0  6.5 1.5 0  7 1.5 0  7.5 1.5 0  8 1.5 0  8.5 1.5 0  9 1.5 0  9.5 1.5 0  10 1.5 0  0 2 0  0.5 2 0  1 2 0  1.5 2 0  2 2 0  2.5 2 0  3 2 0  3.5 2 0  4 2 0  4.5 2 0  5 2 0  5.5 2 0  6 2 0  6.5 2 0  7 2 0  7.5 2 0  8 2 0  8.5 2 0  9 2 0  9.5 2 0  10 2 0  0 2.5 0  0.5 2.5 0  1 2.5 0  1.5 2.5 0  2 2.5 0  2.5 2.5 0  3 2.5 0  3.5 2.5 0  4 2.5 0  4.5 2.5 0  5 2.5 0  5.5 2.5 0  6 2.5 0  6.5 2.5 0  7 2.5 0  7.5 2.5 0  8 2.5 0  8.5 2.5 0  9 2.5 0  9.5 2.5 0  10 2.5 0  0 3 0  0.5 3 0  1 3 0  1.5 3 0  2 3 0  2.5 3 0  3 3 0  3.5 3 0  4 3 0  4.5 3 0  5 3 0  5.5 3 0  6 3 0  6.5 3 0  7 3 0  7.5 3 0  8 3 0  8.5 3 0  9 3 0  9.5 3 0  10 3 0  0 0 0.1  0.5 0 0.1  1 0 0.1  1.5 0 0.1  2 0 0.1  2.5 0 0.1  3 0 0.1  3.5 0 0.1  4 0 0.1  4.5 0 0.1  5 0 0.1  5.5 0 0.1  6 0 0.1  6.5 0 0.1  7 0 0.1  7.5 0 0.1  8 0 0.1  8.5 0 0.1  9 0 0.1  9.5 0 0.1  10 0 0.1  0 0.5 0.1  0.5 0.5 0.1  1 0.5 0.1  1.5 0.5 0.1  2 0.5 0.1  2.5 0.5 0.1  3 0.5 0.1  3.5 0.5 0.1  4 0.5 0.1  4.5 0.5 0.1  5 0.5 0.1  5.5 0.5 0.1  6 0.5 0.1  6.5 0.5 0.1  7 0.5 0.1  7.5 0.5 0.1  8 0.5 0.1  8.5 0.5 0.1  9 0.5 0.1  9.5 0.5 0.1  10 0.5 0.1  0 1 0.1  0.5 1 0.1  1 1 0.1  1.5 1 0.1  2 1 0.1  2.5 1 0.1  3 1 0.1  3.5 1 0.1  4 1 0.1  4.5 1 0.1  5 1 0.1  5.5 1 0.1  6 1 0.1  6.5 1 0.1  7 1 0.1  7.5 1 0.1  8 1 0.1  8.5 1 0.1  9 1 0.1  9.5 1 0.1  10 1 0.1  0 1.5 0.1  0.5 1.5 0.1  1 1.5 0.1  1.5 1.5 0.1  2 1.5 0.1  2.5 1.5 0.1  3 1.5 0.1  3.5 1.5 0.1  4 1.5 0.1  4.5 1.5 0.1  5 1.5 0.1  5.5 1.5 0.1  6 1.5 0.1  6.5 1.5 0.1  7 1.5 0.1  7.5 1.5 0.1  8 1.5 0.1  8.5 1.5 0.1  9 1.5 0.1  9.5 1.5 0.1  10 1.5 0.1  0 2 0.1  0.5 2 0.1  1 2 0.1  1.5 2 0.1  2 2 0.1  2.5 2 0.1  3 2 0.1  3.5 2 0.1  4 2 0.1  4.5 2 0.1  5 2 0.1  5.5 2 0.1  6 2 0.1  6.5 2 0.1  7 2 0.1  7.5 2 0.1  8 2 0.1  8.5 2 0.1  9 2 0.1  9.5 2 0.1  10 2 0.1  0 2.5 0.1  0.5 2.5 0.1  1 2.5 0.1  1.5 2.5 0.1  2 2.5 0.1  2.5 2.5 0.1  3 2.5 0.1  3.5 2.5 0.1  4 2.5 0.1  4.5 2.5 0.1  5 2.5 0.1  5.5 2.5 0.1  6 2.5 0.1  6.5 2.5 0.1  7 2.5 0.1  7.5 2.5 0.1  8 2.5 0.1  8.5 2.5 0.1  9 2.5 0.1  9.5 2.5 0.1  10 2.5 0.1  0 3 0.1  0.5 3 0.1  1 3 0.1  1.5 3 0.1  2 3 0.1  2.5 3 0.1  3 3 0.1  3.5 3 0.1  4 3 0.1  4.5 3 0.1  5 3 0.1  5.5 3 0.1  6 3 0.1  6.5 3 0.1  7 3 0.1  7.5 3 0.1  8 3 0.1  8.5 3 0.1  9 3 0.1  9.5 3 0.1  10 3 0.1  0 0 0.2  0.5 0 0.2  1 0 0.2  1.5 0 0.2  2 0 0.2  2.5 0 0.2  3 0 0.2  3.5 0 0.2  4 0 0.2  4.5 0 0.2  5 0 0.2  5.5 0 0.2  6 0 0.2  6.5 0 0.2  7 0 0.2  7.5 0 0.2  8 0 0.2  8.5 0 0.2  9 0 0.2  9.5 0 0.2  10 0 0.2  0 0.5 0.2  0.5 0.5 0.2  1 0.5 0.2  1.5 0.5 0.2  2 0.5 0.2  2.5 0.5 0.2  3 0.5 0.2  3.5 0.5 0.2  4 0.5 0.2  4.5 0.5 0.2  5 0.5 0.2  5.5 0.5 0.2  6 0.5 0.2  6.5 0.5 0.2  7 0.5 0.2  7.5 0.5 0.2  8 0.5 0.2  8.5 0.5 0.2  9 0.5 0.2  9.5 0.5 0.2  10 0.5 0.2  0 1 0.2  0.5 1 0.2  1 1 0.2  1.5 1 0.2  2 1 0.2  2.5 1 0.2  3 1 0.2  3.5 1 0.2  4 1 0.2  4.5 1 0.2  5 1 0.2  5.5 1 0.2  6 1 0.2  6.5 1 0.2  7 1 0.2  7.5 1 0.2  8 1 0.2  8.5 1 0.2  9 1 0.2  9.5 1 0.2  10 1 0.2  0 1.5 0.2  0.5 1.5 0.2  1 1.5 0.2  1.5 1.5 0.2  2 1.5 0.2  2.5 1.5 0.2  3 1.5 0.2  3.5 1.5 0.2  4 1.5 0.2  4.5 1.5 0.2  5 1.5 0.2  5.5 1.5 0.2  6 1.5 0.2  6.5 1.5 0.2  7 1.5 0.2  7.5 1.5 0.2  8 1.5 0.2  8.5 1.5 0.2  9 1.5 0.2  9.5 1.5 0.2  10 1.5 0.2  0 2 0.2  0.5 2 0.2  1 2 0.2  1.5 2 0.2  2 2 0.2  2.5 2 0.2  3 2 0.2  3.5 2 0.2  4 2 0.2  4.5 2 0.2  5 2 0.2  5.5 2 0.2  6 2 0.2  6.5 2 0.2  7 2 0.2  7.5 2 0.2  8 2 0.2  8.5 2 0.2  9 2 0.2  9.5 2 0.2  10 2 0.2  0 2.5 0.2  0.5 2.5 0.2  1 2.5 0.2  1.5 2.5 0.2  2 2.5 0.2  2.5 2.5 0.2  3 2.5 0.2  3.5 2.5 0.2  4 2.5 0.2  4.5 2.5 0.2  5 2.5 0.2  5.5 2.5 0.2  6 2.5 0.2  6.5 2.5 0.2  7 2.5 0.2  7.5 2.5 0.2  8 2.5 0.2  8.5 2.5 0.2  9 2.5 0.2  9.5 2.5 0.2  10 2.5 0.2  0 3 0.2  0.5 3 0.2  1 3 0.2  1.5 3 0.2  2 3 0.2  2.5 3 0.2  3 3 0.2  3.5 3 0.2  4 3 0.2  4.5 3 0.2  5 3 0.2  5.5 3 0.2  6 3 0.2  6.5 3 0.2  7 3 0.2  7.5 3 0.2  8 3 0.2  8.5 3 0.2  9 3 0.2  9.5 3 0.2  10 3 0.2  0 0 0.3  0.5 0 0.3  1 0 0.3  1.5 0 0.3  2 0 0.3  2.5 0 0.3  3 0 0.3  3.5 0 0.3  4 0 0.3  4.5 0 0.3  5 0 0.3  5.5 0 0.3  6 0 0.3  6.5 0 0.3  7 0 0.3  7.5 0 0.3  8 0 0.3  8.5 0 0.3  9 0 0.3  9.5 0 0.3  10 0 0.3  0 0.5 0.3  0.5 0.5 0.3  1 0.5 0.3  1.5 0.5 0.3  2 0.5 0.3  2.5 0.5 0.3  3 0.5 0.3  3.5 0.5 0.3  4 0.5 0.3  4.5 0.5 0.3  5 0.5 0.3  5.5 0.5 0.3  6 0.5 0.3  6.5 0.5 0.3  7 0.5 0.3  7.5 0.5 0.3  8 0.5 0.3  8.5 0.5 0.3  9 0.5 0.3  9.5 0.5 0.3  10 0.5 0.3  0 1 0.3  0.5 1 0.3  1 1 0.3  1.5 1 0.3  2 1 0.3  2.5 1 0.3  3 1 0.3  3.5 1 0.3  4 1 0.3  4.5 1 0.3  5 1 0.3  5.5 1 0.3  6 1 0.3  6.5 1 0.3  7 1 0.3  7.5 1 0.3  8 1 0.3  8.5 1 0.3  9 1 0.3  9.5 1 0.3  10 1 0.3  0 1.5 0.3  0.5 1.5 0.3  1 1.5 0.3  1.5 1.5 0.3  2 1.5 0.3  2.5 1.5 0.3  3 1.5 0.3  3.5 1.5 0.3  4 1.5 0.3  4.5 1.5 0.3  5 1.5 0.3  5.5 1.5 0.3  6 1.5 0.3  6.5 1.5 0.3  7 1.5 0.3  7.5 1.5 0.3  8 1.5 0.3  8.5 1.5 0.3  9 1.5 0.3  9.5 1.5 0.3  10 1.5 0.3  0 2 0.3  0.5 2 0.3  1 2 0.3  1.5 2 0.3  2 2 0.3  2.5 2 0.3  3 2 0.3  3.5 2 0.3  4 2 0.3  4.5 2 0.3  5 2 0.3  5.5 2 0.3  6 2 0.3  6.5 2 0.3  7 2 0.3  7.5 2 0.3  8 2 0.3  8.5 2 0.3  9 2 0.3  9.5 2 0.3  10 2 0.3  0 2.5 0.3  0.5 2.5 0.3  1 2.5 0.3  1.5 2.5 0.3  2 2.5 0.3  2.5 2.5 0.3  3 2.5 0.3  3.5 2.5 0.3  4 2.5 0.3  4.5 2.5 0.3  5 2.5 0.3  5.5 2.5 0.3  6 2.5 0.3  6.5 2.5 0.3  7 2.5 0.3  7.5 2.5 0.3  8 2.5 0.3  8.5 2.5 0.3  9 2.5 0.3  9.5 2.5 0.3  10 2.5 0.3  0 3 0.3  0.5 3 0.3  1 3 0.3  1.5 3 0.3  2 3 0.3  2.5 3 0.3  3 3 0.3  3.5 3 0.3  4 3 0.3  4.5 3 0.3  5 3 0.3  5.5 3 0.3  6 3 0.3  6.5 3 0.3  7 3 0.3  7.5 3 0.3  8 3 0.3  8.5 3 0.3  9 3 0.3  9.5 3 0.3  10 3 0.3  0 0 0.4  0.5 0 0.4  1 0 0.4  1.5 0 0.4  2 0 0.4  2.5 0 0.4  3 0 0.4  3.5 0 0.4  4 0 0.4  4.5 0 0.4  5 0 0.4  5.5 0 0.4  6 0 0.4  6.5 0 0.4  7 0 0.4  7.5 0 0.4  8 0 0.4  8.5 0 0.4  9 0 0.4  9.5 0 0.4  10 0 0.4  0 0.5 0.4  0.5 0.5 0.4  1 0.5 0.4  1.5 0.5 0.4  2 0.5 0.4  2.5 0.5 0.4  3 0.5 0.4  3.5 0.5 0.4  4 0.5 0.4  4.5 0.5 0.4  5 0.5 0.4  5.5 0.5 0.4  6 0.5 0.4  6.5 0.5 0.4  7 0.5 0.4  7.5 0.5 0.4  8 0.5 0.4  8.5 0.5 0.4  9 0.5 0.4  9.5 0.5 0.4  10 0.5 0.4  0 1 0.4  0.5 1 0.4  1 1 0.4  1.5 1 0.4  2 1 0.4  2.5 1 0.4  3 1 0.4  3.5 1 0.4  4 1 0.4  4.5 1 0.4  5 1 0.4  5.5 1 0.4  6 1 0.4  6.5 1 0.4  7 1 0.4  7.5 1 0.4  8 1 0.4  8.5 1 0.4  9 1 0.4  9.5 1 0.4  10 1 0.4  0 1.5 0.4  0.5 1.5 0.4  1 1.5 0.4  1.5 1.5 0.4  2 1.5 0.4  2.5 1.5 0.4  3 1.5 0.4  3.5 1.5 0.4  4 1.5 0.4  4.5 1.5 0.4  5 1.5 0.4  5.5 1.5 0.4  6 1.5 0.4  6.5 1.5 0.4  7 1.5 0.4  7.5 1.5 0.4  8 1.5 0.4  8.5 1.5 0.4  9 1.5 0.4  9.5 1.5 0.4  10 1.5 0.4  0 2 0.4  0.5 2 0.4  1 2 0.4  1.5 2 0.4  2 2 0.4  2.5 2 0.4  3 2 0.4  3.5 2 0.4  4 2 0.4  4.5 2 0.4  5 2 0.4  5.5 2 0.4  6 2 0.4  6.5 2 0.4  7 2 0.4  7.5 2 0.4  8 2 0.4  8.5 2 0.4  9 2 0.4  9.5 2 0.4  10 2 0.4  0 2.5 0.4  0.5 2.5 0.4  1 2.5 0.4  1.5 2.5 0.4  2 2.5 0.4  2.5 2.5 0.4  3 2.5 0.4  3.5 2.5 0.4  4 2.5 0.4  4.5 2.5 0.4  5 2.5 0.4  5.5 2.5 0.4  6 2.5 0.4  6.5 2.5 0.4  7 2.5 0.4  7.5 2.5 0.4  8 2.5 0.4  8.5 2.5 0.4  9 2.5 0.4  9.5 2.5 0.4  10 2.5 0.4  0 3 0.4  0.5 3 0.4  1 3 0.4  1.5 3 0.4  2 3 0.4  2.5 3 0.4  3 3 0.4  3.5 3 0.4  4 3 0.4  4.5 3 0.4  5 3 0.4  5.5 3 0.4  6 3 0.4  6.5 3 0.4  7 3 0.4  7.5 3 0.4  8 3 0.4  8.5 3 0.4  9 3 0.4  9.5 3 0.4  10 3 0.4  0 0 0.5  0.5 0 0.5  1 0 0.5  1.5 0 0.5  2 0 0.5  2.5 0 0.5  3 0 0.5  3.5 0 0.5  4 0 0.5  4.5 0 0.5  5 0 0.5  5.5 0 0.5  6 0 0.5  6.5 0 0.5  7 0 0.5  7.5 0 0.5  8 0 0.5  8.5 0 0.5  9 0 0.5  9.5 0 0.5  10 0 0.5  0 0.5 0.5  0.5 0.5 0.5  1 0.5 0.5  1.5 0.5 0.5  2 0.5 0.5  2.5 0.5 0.5  3 0.5 0.5  3.5 0.5 0.5  4 0.5 0.5  4.5 0.5 0.5  5 0.5 0.5  5.5 0.5 0.5  6 0.5 0.5  6.5 0.5 0.5  7 0.5 0.5  7.5 0.5 0.5  8 0.5 0.5  8.5 0.5 0.5  9 0.5 0.5  9.5 0.5 0.5  10 0.5 0.5  0 1 0.5  0.5 1 0.5  1 1 0.5  1.5 1 0.5  2 1 0.5  2.5 1 0.5  3 1 0.5  3.5 1 0.5  4 1 0.5  4.5 1 0.5  5 1 0.5  5.5 1 0.5  6 1 0.5  6.5 1 0.5  7 1 0.5  7.5 1 0.5  8 1 0.5  8.5 1 0.5  9 1 0.5  9.5 1 0.5  10 1 0.5  0 1.5 0.5  0.5 1.5 0.5  1 1.5 0.5  1.5 1.5 0.5  2 1.5 0.5  2.5 1.5 0.5  3 1.5 0.5  3.5 1.5 0.5  4 1.5 0.5  4.5 1.5 0.5  5 1.5 0.5  5.5 1.5 0.5  6 1.5 0.5  6.5 1.5 0.5  7 1.5 0.5  7.5 1.5 0.5  8 1.5 0.5  8.5 1.5 0.5  9 1.5 0.5  9.5 1.5 0.5  10 1.5 0.5  0 2 0.5  0.5 2 0.5  1 2 0.5  1.5 2 0.5  2 2 0.5  2.5 2 0.5  3 2 0.5  3.5 2 0.5  4 2 0.5  4.5 2 0.5  5 2 0.5  5.5 2 0.5  6 2 0.5  6.5 2 0.5  7 2 0.5  7.5 2 0.5  8 2 0.5  8.5 2 0.5  9 2 0.5  9.5 2 0.5  10 2 0.5  0 2.5 0.5  0.5 2.5 0.5  1 2.5 0.5  1.5 2.5 0.5  2 2.5 0.5  2.5 2.5 0.5  3 2.5 0.5  3.5 2.5 0.5  4 2.5 0.5  4.5 2.5 0.5  5 2.5 0.5  5.5 2.5 0.5  6 2.5 0.5  6.5 2.5 0.5  7 2.5 0.5  7.5 2.5 0.5  8 2.5 0.5  8.5 2.5 0.5  9 2.5 0.5  9.5 2.5 0.5  10 2.5 0.5  0 3 0.5  0.5 3 0.5  1 3 0.5  1.5 3 0.5  2 3 0.5  2.5 3 0.5  3 3 0.5  3.5 3 0.5  4 3 0.5  4.5 3 0.5  5 3 0.5  5.5 3 0.5  6 3 0.5  6.5 3 0.5  7 3 0.5  7.5 3 0.5  8 3 0.5  8.5 3 0.5  9 3 0.5  9.5 3 0.5  10 3 0.5  </DataArray>
</Points>
<Cells>
[...]
<PointData  Vectors="f_7-0"> 
<DataArray  type="Float64"  Name="f_7-0"  NumberOfComponents="3" format="ascii">0.0000000000000000e+00 0.0000000000000000e+00 0.0000000000000000e+00  1.9493954162336882e-01 1.7024551494702175e-01 2.9824179443749429e-02  3.7148890683430030e-01 3.2267640250890089e-01 2.9212698751817281e-02  5.6831112256004035e-01 4.4165684932819732e-01 3.1268733243226134e-02  8.4176990542456354e-01 4.9339174418654408e-01 3.1260093378368922e-02  1.1610158091374581e+00 4.9388093770380814e-01 2.9690986392089641e-02  1.4890619919227641e+00 4.8590891999956382e-01 2.8523825836464588e-02  1.8130791229744556e+00 4.8441977731602093e-01 2.8549689354911343e-02  2.1344838863223994e+00 4.8595688115938490e-01 2.8789146550485995e-02  2.4558893517274250e+00 4.8712966352593401e-01 2.8860599319229106e-02  2.7778272055051163e+00 4.8750697113943159e-01 2.8847154846683775e-02  3.1000245142235374e+00 4.8755047997718981e-01 2.8832262222715822e-02  3.4222559501456198e+00 4.8755942331250041e-01 2.8830874808607462e-02  3.7444674318182627e+00 4.8759170726931378e-01 2.8833294014192157e-02  4.0666730782828280e+00 4.8762501813463072e-01 2.8834168676807648e-02  4.3888855162221674e+00 4.8764513693284833e-01 2.8833633778030228e-02  4.7111049503846321e+00 4.8765434162346394e-01 2.8832889304866806e-02  5.0333277169279027e+00 4.8765849778877957e-01 2.8832445012864246e-02  5.3555515312103239e+00 4.8766080022302238e-01 2.8832262475385485e-02  5.6777756863344155e+00 4.8766212696939298e-01 2.8832202401742550e-02  6.0000000000000018e+00 4.8766256644404848e-01 2.8832193179639209e-02  0.0000000000000000e+00 0.0000000000000000e+00 0.0000000000000000e+00  9.4966294587111061e-02 6.3142069881736776e-02 3.3128185114805545e-02  2.8657467274902926e-01 2.3413947709131663e-01 3.3222821898627138e-02  5.3240223537207787e-01 3.2808560021495603e-01 3.2529092216131761e-02  8.3875219030709436e-01 3.5178563336091712e-01 2.9314778147925987e-02  1.1653834153539799e+00 3.4404992970568565e-01 2.7761497335253175e-02  1.4904898335870012e+00 3.3856501009642481e-01 2.8548436047090044e-02  1.8124290288759468e+00 3.3919774130255786e-01 2.8861039371972218e-02  2.1338266914324198e+00 3.4090950016849941e-01 2.8773425812433084e-02  2.4556486229903349e+00 3.4173130876284691e-01 2.8705132448277083e-02  2.7777948831119406e+00 3.4190525666659288e-01 2.8684154780147828e-02  3.1000245294704794e+00 3.4191212560926737e-01 2.8686445050229704e-02  3.4222433030125869e+00 3.4193417151335492e-01 2.8690982191604611e-02  3.7444511185588492e+00 3.4197277105739610e-01 2.8692102319367922e-02  4.0666623464837794e+00 3.4200242882031268e-01 2.8691442458852752e-02  4.3888804950701568e+00 3.4201766898531466e-01 2.8690745783033100e-02  4.7111027703825314e+00 3.4202433748239813e-01 2.8690436056978037e-02  5.0333265466002128e+00 3.4202766668971779e-01 2.8690335095675715e-02  5.3555508046688640e+00 3.4202970659216470e-01 2.8690283374221630e-02  5.6777753251135552e+00 3.4203088738360204e-01 2.8690245229831966e-02  6.0000000000000018e+00 3.4203127637567965e-01 2.8690229599091437e-02  0.0000000000000000e+00 0.0000000000000000e+00 0.0000000000000000e+00  3.3110167592030941e-02 1.0887759264088631e-02 2.6073668877641346e-02  2.1999597009899846e-01 1.3220767456528956e-01 3.3011495061008117e-02  5.1129173251772497e-01 1.9400342635076706e-01 3.0567287284604453e-02  8.3998266667781085e-01 2.0100780264309612e-01 2.5565294594829518e-02  1.1688302685510776e+00 1.9494466331886751e-01 2.7203509695659229e-02  1.4909423902324772e+00 1.9317015629556347e-01 2.8918051797338837e-02  1.8117040315802424e+00 1.9432981937364036e-01 2.8895973499425298e-02  2.1333064419299559e+00 1.9559879793887203e-01 2.8652498408460902e-02  2.4554885736532102e+00 1.9613753380148252e-01 2.8545292527083276e-02  2.7777772271365389e+00 1.9625286004368728e-01 2.8534023196159105e-02  3.1000187705735929e+00 1.9627852307799568e-01 2.8545865662806310e-02  3.4222274602031399e+00 1.9631435071423442e-01 2.8550857237528995e-02  3.7444358972233767e+00 1.9635150355681749e-01 2.8550078850701297e-02  4.0666534570278587e+00 1.9637570152494302e-01 2.8548591773756425e-02  4.3888764609209305e+00 1.9638773326239517e-01 2.8548089201952755e-02  4.7111009020359100e+00 1.9639339969524566e-01 2.8548163498588599e-02  5.0333254669077956e+00 1.9639649394009490e-01 2.8548278072848387e-02  5.3555501364420461e+00 1.9639838272286428e-01 2.8548298533601926e-02  5.6777750007117262e+00 1.9639942610438474e-01 2.8548276155634673e-02  6.0000000000000018e+00 1.9639975921416070e-01 2.8548262938569505e-02  0.0000000000000000e+00 0.0000000000000000e+00 0.0000000000000000e+00  2.1058079987159434e-02 1.1843221309019455e-02 1.9657138589852872e-02  1.7813966847453824e-01 1.1542688163932358e-02 3.8790599841319634e-02  5.0243531881325665e-01 4.1867390899539912e-02 2.2848069155775984e-02  8.4167728831128641e-01 4.5479885018752879e-02 2.4553924938328010e-02  1.1694888536074197e+00 4.7378166358730399e-02 2.8068785115260151e-02  1.4906905458828099e+00 4.8799907494919040e-02 2.8872695542713021e-02  1.8112340980875494e+00 4.9571561339319205e-02 2.8737407164296024e-02  2.1330008579804542e+00 5.0087346606434366e-02 2.8495275828704696e-02  2.4553731320979413e+00 5.0406217099942800e-02 2.8391633313905335e-02  2.7777427958007497e+00 5.0564927228454855e-02 2.8391086604949590e-02  3.0999992582628844e+00 5.0646357778465878e-02 2.8404858975597247e-02  3.4222099949009830e+00 5.0695811437700099e-02 2.8408790272987396e-02  3.7444233249508971e+00 5.0726908311399900e-02 2.8407315096318577e-02  4.0666463551742140e+00 5.0745351291359424e-02 2.8405925102269455e-02  4.3888728700333282e+00 5.0755792649386698e-02 2.8405760016932423e-02  4.7110990108494484e+00 5.0761648386416121e-02 2.8406050085725307e-02  5.0333243742283074e+00 5.0764962284835395e-02 2.8406253801942682e-02  5.3555495110726987e+00 5.0766815400493999e-02 2.8406308679483027e-02  5.6777747148480247e+00 5.0767753902638352e-02 2.8406302314992492e-02  6.0000000000000018e+00 5.0768041729028122e-02 2.8406295193243409e-02  0.0000000000000000e+00 0.0000000000000000e+00 0.0000000000000000e+00  3.9132434685787899e-02 2.0595023214130220e-03 2.8596281044375182e-02  1.9591161675288524e-01 -8.5639447197241508e-02 3.8206188896032320e-02  4.9991892834090879e-01 -1.2304194533334591e-01 2.1271367859230395e-02  8.3922458784425447e-01 -1.0961184644850162e-01 2.6445198663591282e-02  1.1675137635369872e+00 -9.9857179182582273e-02 2.8093277509851720e-02  1.4899361734430878e+00 -9.5796910936837384e-02 2.8545647028292875e-02  1.8111246856977117e+00 -9.5287947455081387e-02 2.8502133008166366e-02  2.1329311782240565e+00 -9.5482005334281750e-02 2.8322372068568857e-02  2.4552779961941442e+00 -9.5374143956629284e-02 2.8244155982353050e-02  2.7776731865975961e+00 -9.5147658336161262e-02 2.8246929170967230e-02  3.0999613747805679e+00 -9.4995538047021419e-02 2.8260210228841870e-02  3.4221915533102414e+00 -9.4928127775825044e-02 2.8264773238432940e-02  3.7444138017969921e+00 -9.4901556757543595e-02 2.8264305709777456e-02  4.0666406542352673e+00 -9.4887494774838571e-02 2.8263634258643189e-02  4.3888692684348465e+00 -9.4877571234053826e-02 2.8263719884212501e-02  4.7110968552909291e+00 -9.4870884538096265e-02 2.8264042839185242e-02  5.0333231808575736e+00 -9.4867016572995386e-02 2.8264250588645429e-02  5.3555488989962381e+00 -9.4865032516313758e-02 2.8264319821323967e-02  5.6777744565091668e+00 -9.4864118907328904e-02 2.8264328927651582e-02  6.0000000000000018e+00 -9.4863853021293632e-02 2.8264327298001997e-02  0.0000000000000000e+00 0.0000000000000000e+00 0.0000000000000000e+00  8.2496510452000807e-02 -3.8459922944042477e-02 3.6040490470424069e-02  2.7153131147948512e-01 -1.8171223274120882e-01 2.8679064742864434e-02  5.0669480044073389e-01 -2.7053931958228938e-01 3.0809117136703128e-02  8.3252182999954805e-01 -2.6456640525461722e-01 2.6205301481169063e-02  1.1634056334630791e+00 -2.4838835724170261e-01 2.7834370867503216e-02  1.4886963554486430e+00 -2.4153452803947092e-01 2.8092630973797352e-02  1.8112070366214044e+00 -2.4046621152554909e-01 2.8182680506109670e-02  2.1330581839423437e+00 -2.4097823943888161e-01 2.8137559116264289e-02  2.4552121739649939e+00 -2.4110930680984649e-01 2.8099114723384538e-02  2.7775706995054446e+00 -2.4087540463045223e-01 2.8099183372353089e-02  3.0999033420492448e+00 -2.4066103100981492e-01 2.8112160945000127e-02  3.4221700765163572e+00 -2.4056488708635815e-01 2.8119417647073486e-02  3.7444060287934566e+00 -2.4053433740105534e-01 2.8121399784977102e-02  4.0666358152497706e+00 -2.4052168934273266e-01 2.8121731838525930e-02  4.3888654684306267e+00 -2.4051184940838147e-01 2.8121902703304551e-02  4.7110943305140491e+00 -2.4050422957782722e-01 2.8122111871773752e-02  5.0333218046999928e+00 -2.4049956431677547e-01 2.8122263777451317e-02  5.3555482463787927e+00 -2.4049721300314195e-01 2.8122332628196828e-02  5.6777742011566286e+00 -2.4049619085022950e-01 2.8122353401618332e-02  6.0000000000000018e+00 -2.4049591109308532e-01 2.8122356852754309e-02  0.0000000000000000e+00 0.0000000000000000e+00 0.0000000000000000e+00  1.7589606959171081e-01 -1.3654145305768378e-01 3.0658316336556978e-02  3.5608369556242103e-01 -2.7634353538456397e-01 2.5486863498964823e-02  5.4137143381137498e-01 -3.8161942499499762e-01 3.3992870362297173e-02  8.2487265944263222e-01 -4.1742106011491575e-01 2.8636269886911057e-02  1.1577047374677754e+00 -3.9919097714134066e-01 2.6711995325491348e-02  1.4867504761621355e+00 -3.8902197517396675e-01 2.7523617713154324e-02  1.8111330862665447e+00 -3.8619447658825201e-01 2.7824972879931676e-02  2.1332869243082033e+00 -3.8637846910902274e-01 2.7939151819815437e-02  2.4552051282438145e+00 -3.8672681277384424e-01 2.7945541440650083e-02  2.7774577314425555e+00 -3.8660065546451272e-01 2.7948520161382242e-02  3.0998261891905883e+00 -3.8635917591555091e-01 2.7963128499790033e-02  3.4221407054530339e+00 -3.8622143105133649e-01 2.7974184310095272e-02  3.7443971219234951e+00 -3.8617285840895177e-01 2.7978936246060685e-02  4.0666311687690833e+00 -3.8615676547079947e-01 2.7980121102939407e-02  4.3888615084561637e+00 -3.8614670434919657e-01 2.7980224250221553e-02  4.7110914447101564e+00 -3.8613840116242537e-01 2.7980235059990213e-02  5.0333201648409229e+00 -3.8613279003142442e-01 2.7980291474380071e-02  5.3555474762568771e+00 -3.8612979020826238e-01 2.7980344648411013e-02  5.6777739104425322e+00 -3.8612848166676778e-01 2.7980371398696788e-02  6.0000000000000018e+00 -3.8612812994487294e-01 2.7980379753791324e-02  0.0000000000000000e+00 0.0000000000000000e+00 0.0000000000000000e+00  1.9492700150147252e-01 1.7024122964653082e-01 1.8656987147894009e-02  3.7141623028389981e-01 3.2222696261359279e-01 1.6683367224814529e-02  5.6957220184900104e-01 4.4089834006953832e-01 1.7476917446931493e-02  8.4198365788349860e-01 4.9347594791005189e-01 1.8545415714301156e-02  1.1606678719169672e+00 4.9448723843188219e-01 1.7671454965815323e-02  1.4889419204708265e+00 4.8602813926269939e-01 1.6428992474944344e-02  1.8131170454878469e+00 4.8434847831187106e-01 1.6247628011848845e-02  2.1345105943194698e+00 4.8594718821541311e-01 1.6451913425430557e-02  2.4558943485466798e+00 4.8716221291586531e-01 1.6550657803795641e-02  2.7778255445517144e+00 4.8754668722201672e-01 1.6555772232141646e-02  3.1000230999765295e+00 4.8758728076799740e-01 1.6545210861860633e-02  3.4222556619732867e+00 4.8759442463785352e-01 1.6542990326009796e-02  3.7444675461809358e+00 4.8762664501677644e-01 1.6544736132028101e-02  4.0666731512199759e+00 4.8766025088833692e-01 1.6545798980476600e-02  4.3888855058577425e+00 4.8768045705479157e-01 1.6545649583994616e-02  4.7111049259337650e+00 4.8768959258897993e-01 1.6545128759337214e-02  5.0333277088624788e+00 4.8769367206865188e-01 1.6544761095253623e-02  5.3555515339976214e+00 4.8769594010494532e-01 1.6544600772541097e-02  5.6777756898264693e+00 4.8769726053428375e-01 1.6544550904906436e-02  6.0000000000000018e+00 4.8769770321875688e-01 1.6544544446871354e-02  0.0000000000000000e+00 0.0000000000000000e+00 0.0000000000000000e+00  9.6588994876674550e-02 6.6181895051053000e-02 1.9878008042301679e-02  2.8744278353038721e-01 2.3359223411305405e-01 1.9430802029937806e-02  5.3301261364788866e-01 3.2787799758661290e-01 1.9012650108406602e-02  8.3856926655813480e-01 3.5237941502231696e-01 1.7087843216226150e-02  1.1653022724717259e+00 3.4424917117573600e-01 1.5883024014123760e-02  1.4905504717703437e+00 3.3849554100996160e-01 1.6324274957994402e-02  1.8124424908018189e+00 3.3917802598151475e-01 1.6511455994401236e-02  2.1338228246652826e+00 3.4093407784214452e-01 1.6449292264366238e-02  2.4556469864683943e+00 3.4176851140230141e-01 1.6409087731264708e-02  2.7777952483572959e+00 3.4194150679290802e-01 1.6397551274600304e-02  3.1000249559159658e+00 3.4194680414639678e-01 1.6399582426950381e-02  3.4222433517176789e+00 3.4196888068319575e-01 1.6402681921386289e-02  3.7444510278277185e+00 3.4200792488922716e-01 1.6403583698296236e-02  4.0666622872377243e+00 3.4203776239871142e-01 1.6403315842302799e-02  4.3888804891502575e+00 3.4205295630821297e-01 1.6402938049005042e-02  4.7111027866691995e+00 3.4205953811787021e-01 1.6402750040169559e-02  5.0333265618082912e+00 3.4206281914562142e-01 1.6402677464015747e-02  5.3555508131476879e+00 3.4206484413545274e-01 1.6402636677541604e-02  5.6777753284858274e+00 3.4206602312632950e-01 1.6402608209551205e-02  6.0000000000000018e+00 3.4206641298352303e-01 1.6402597104296594e-02  0.0000000000000000e+00 0.0000000000000000e+00 0.0000000000000000e+00  3.1608860030408630e-02 1.1658664096501072e-02 1.5018940793640407e-02  2.2289419773930910e-01 1.3415078522988982e-01 1.9045198204139156e-02  5.1140407622282213e-01 1.9484805168920399e-01 1.7803640526554525e-02  8.3997622273091399e-01 2.0128690310633646e-01 1.4348157893660580e-02  1.1690277622035852e+00 1.9473198092162258e-01 1.5298472437117565e-02  1.4909841672424113e+00 1.9314043721377699e-01 1.6520392517602612e-02  1.8116891683951937e+00 1.9436898741991765e-01 1.6518721031833224e-02  2.1332983232555756e+00 1.9563975196401079e-01 1.6346565193468963e-02  2.4554887683681064e+00 1.9617274175173638e-01 1.6263693932821430e-02  2.7777789031105358e+00 1.9628634676787393e-01 1.6251461097951229e-02  3.1000193575018993e+00 1.9631276811423384e-01 1.6258677018890229e-02  3.4222272985659576e+00 1.9634943457497397e-01 1.6262080421084325e-02  3.7444356680618092e+00 1.9638686521555929e-01 1.6261679620419984e-02  4.0666533783869525e+00 1.9641101029496585e-01 1.6260752120463875e-02  4.3888764758516503e+00 1.9642294122790357e-01 1.6260458139742529e-02  4.7111009317501225e+00 1.9642855735671488e-01 1.6260542551736389e-02  5.0333254844493229e+00 1.9643163728370203e-01 1.6260642085819427e-02  5.3555501438938169e+00 1.9643352230343550e-01 1.6260666054763204e-02  5.6777750036714121e+00 1.9643456373789225e-01 1.6260653825963988e-02  6.0000000000000018e+00 1.9643489602660397e-01 1.6260645298744936e-02  0.0000000000000000e+00 0.0000000000000000e+00 0.0000000000000000e+00  2.0647099317974246e-02 1.0814093562814571e-02 1.1422023373443738e-02  1.7797291098681814e-01 1.1349284312924146e-02 2.2357806743945864e-02  5.0294725665327722e-01 4.3016663370827754e-02 1.2669277480241154e-02  8.4222751992210609e-01 4.4961407311643685e-02 1.3538411439078035e-02  1.1696111959231945e+00 4.7222592506014287e-02 1.5913395035866789e-02  1.4906714662626226e+00 4.8840653550656213e-02 1.6450205475948523e-02  1.8112154135298120e+00 4.9639605735176812e-02 1.6365901340536674e-02  2.1329994588349215e+00 5.0131699041461066e-02 1.6199577510979498e-02  2.4553762987780194e+00 5.0440005498370820e-02 1.6117346790548638e-02  2.7777442246853514e+00 5.0598236904097295e-02 1.6110603930682910e-02  3.0999991217241729e+00 5.0681212800680303e-02 1.6117760181160672e-02  3.4222095291423513e+00 5.0731312374142412e-02 1.6120079480495174e-02  3.7444230748693581e+00 5.0762328120026998e-02 1.6119183000531823e-02  4.0666463112465454e+00 5.0780574448645678e-02 1.6118321113970040e-02  4.3888728941987099e+00 5.0790931846301082e-02 1.6118253440514436e-02  4.7110990324164890e+00 5.0796781227007752e-02 1.6118482733044056e-02  5.0333243840142616e+00 5.0800102345810214e-02 1.6118644284936350e-02  5.3555495154973025e+00 5.0801956281456881e-02 1.6118694221481131e-02  5.6777747172218840e+00 5.0802892439079567e-02 1.6118694735845950e-02  6.0000000000000018e+00 5.0803178681511060e-02 1.6118690865911563e-02  0.0000000000000000e+00 0.0000000000000000e+00 0.0000000000000000e+00  3.8001111072672608e-02 3.2294812879242522e-04 1.6425763378570428e-02  1.9614524486831708e-01 -8.4499189434162500e-02 2.2074028357723027e-02  5.0146916703354361e-01 -1.2438532628626436e-01 1.1301003469554177e-02  8.3974765338579449e-01 -1.0979379955433000e-01 1.4986264883108948e-02  1.1675195369870153e+00 -9.9886664317808821e-02 1.5944876143188680e-02  1.4898905402445883e+00 -9.5701594612879401e-02 1.6200718383362286e-02  1.8111094518716644e+00 -9.5214880272677840e-02 1.6155435870048376e-02  2.1329362658647235e+00 -9.5438047384705335e-02 1.6025689486881989e-02  2.4552828584345945e+00 -9.5339369344779018e-02 1.5968784236501627e-02  2.7776740214388407e+00 -9.5112784727787489e-02 1.5967268518264022e-02  3.0999605472985858e+00 -9.4959800344505699e-02 1.5974170509844142e-02  3.4221908751673529e+00 -9.4892421188557396e-02 1.5976779152084175e-02  3.7444135773821361e+00 -9.4866222174586762e-02 1.5976516758013686e-02  4.0666406443856307e+00 -9.4852372765191262e-02 1.5976167960825419e-02  4.3888692903913933e+00 -9.4842478124170446e-02 1.5976284788989714e-02  4.7110968635286730e+00 -9.4835764457963947e-02 1.5976526919283380e-02  5.0333231822697142e+00 -9.4831879147793438e-02 1.5976676906126412e-02  5.3555489005960881e+00 -9.4829892117606160e-02 1.5976727831660584e-02  5.6777744582695471e+00 -9.4828979991012557e-02 1.5976735529666421e-02  6.0000000000000018e+00 -9.4828715552541590e-02 1.5976734856087929e-02  0.0000000000000000e+00 0.0000000000000000e+00 0.0000000000000000e+00  8.2442409812591946e-02 -3.8957783905788156e-02 2.0836657619525113e-02  2.7280800228262725e-01 -1.8249804389152091e-01 1.6344382378332311e-02  5.0765138937441645e-01 -2.7161413066488838e-01 1.7724703618550067e-02  8.3300934462608200e-01 -2.6451440828580797e-01 1.4866475174879181e-02  1.1634229377505161e+00 -2.4820853673604076e-01 1.5763679503107846e-02  1.4886353120863636e+00 -2.4142228323693946e-01 1.5871146019862125e-02  1.8111990741875204e+00 -2.4039611823302898e-01 1.5874973764867451e-02  2.1330658611257771e+00 -2.4093463520017086e-01 1.5834516767196185e-02  2.4552175809502654e+00 -2.4107200971563522e-01 1.5816150151083223e-02  2.7775712878699235e+00 -2.4083842338332395e-01 1.5819117592095134e-02  3.0999022392280366e+00 -2.4062456462147974e-01 1.5828023056774197e-02  3.4221693417906311e+00 -2.4052923456089861e-01 1.5832692731068358e-02  3.7444058300731857e+00 -2.4049918352122790e-01 1.5834011165554631e-02  4.0666358120033088e+00 -2.4048666016035453e-01 1.5834331404402997e-02  4.3888654781993122e+00 -2.4047678371973058e-01 1.5834503476177059e-02  4.7110943266753047e+00 -2.4046911648941488e-01 1.5834647656512206e-02  5.0333217998758935e+00 -2.4046443003972165e-01 1.5834733699133841e-02  5.3555482456734866e+00 -2.4046207395590888e-01 1.5834766600159447e-02  5.6777742022184245e+00 -2.4046105153455438e-01 1.5834774416354686e-02  6.0000000000000018e+00 -2.4046077236942728e-01 1.5834775555044645e-02  0.0000000000000000e+00 0.0000000000000000e+00 0.0000000000000000e+00  1.7481378744333617e-01 -1.3673267575237993e-01 1.9273185850048211e-02  3.5779328680540157e-01 -2.7774038693581760e-01 1.5136702231364910e-02  5.4223275773391477e-01 -3.8195045659548971e-01 1.9952689872240470e-02  8.2489207714823587e-01 -4.1780082179390682e-01 1.6549306740377422e-02  1.1577409850585172e+00 -3.9883206246102415e-01 1.4968253932517687e-02  1.4867196153725140e+00 -3.8889945731235331e-01 1.5434412974098793e-02  1.8111325686965658e+00 -3.8613668041697879e-01 1.5561061883400005e-02  2.1332986091056112e+00 -3.8633441139292657e-01 1.5630455505063583e-02  2.4552117838303884e+00 -3.8668597033993640e-