<?xml version="1.0"?>
<VTKFile type="UnstructuredGrid"  version="0.1"  >
<UnstructuredGrid>
<Piece  NumberOfPoints="588" NumberOfCells="2160">
<Points>
<DataArray  type="Float64"  NumberOfComponents="3"  format="ascii">0 0 0  0.5 0 0  1 0 0  1.5 0 0  2 0 0  2.5 0 0  3 0 0  3.5 0 0  4 0 0  4.5 0 0  5 0 0  5.5 0 0  6 0 0  6.5 0 0  7 0 0  7.5 0 0  8 0 0  8.5 0 0  9 0 0  9.5 0 0  10 0 0  0 0.5 0  0.5 0.5 0  1 0.5 0  1.5 0.5 0  2 0.5 0  2.5 0.5 0  3 0.5 0  3.5 0.5 0  4 0.5 0  4.5 0.5 0  5 0.5 0  5.5 0.5 0  6 0.5 0  6.5 0.5 0  7 0.5 0  7.5 0.5 0  8 0.5 0  8.5 0.5 0  9 0.5 0  9.5 0.5 0  10 0.5 0  0 1 0  0.5 1 0  1 1 0  1.5 1 0  2 1 0  2.5 1 0  3 1 0  3.5 1 0  4 1 0  4.5 1 0  5 1 0  5.5 1 0  6 1 0  6.5 1 0  7 1 0  7.5 1 0  8 1 0  8.5 1 0  9 1 0  9.5 1 0  10 1 0  0 1.5 0  0.5 1.5 0  1 1.5 0  1.5 1.5 0  2 1.5 0  2.5 1.5 0  3 1.5 0  3.5 1.5 0  4 1.5 0  4.5 1.5 0  5 1.5 0  5.5 1.5 0  6 1.5 0  6.5 1.5 0  7 1.5 0  7.5 1.5 0  8 1.5 0  8.5 1.5 0  9 1.5 0  9.5 1.5 0  10 1.5 0  0 2 0  0.5 2 0  1 2 0  1.5 2 0  2 2 0  2.5 2 0  3 2 0  3.5 2 0  4 2 0  4.5 2 0  5 2 0  5.5 2 0  6 2 0  6.5 2 0  7 2 0  7.5 2 0  8 2 0  8.5 2 0  9 2 0  9.5 2 0  10 2 0  0 2.5 0  0.5 2.5 0  1 2.5 0  1.5 2.5 0  2 2.5 0  2.5 2.5 0  3 2.5 0  3.5 2.5 0  4 2.5 0  4.5 2.5 0  5 2.5 0  5.5 2.5 0  6 2.5 0  6.5 2.5 0  7 2.5 0  7.5 2.5 0  8 2.5 0  8.5 2.5 0  9 2.5 0  9.5 2.5 0  10 2.5 0  0 3 0  0.5 3 0  1 3 0  1.5 3 0  2 3 0  2.5 3 0  3 3 0  3.5 3 0  4 3 0  4.5 3 0  5 3 0  5.5 3 0  6 3 0  6.5 3 0  7 3 0  7.5 3 0  8 3 0  8.5 3 0  9 3 0  9.5 3 0  10 3 0  0 0 0.1666666666666667  0.5 0 0.1666666666666667  1 0 0.1666666666666667  1.5 0 0.1666666666666667  2 0 0.1666666666666667  2.5 0 0.1666666666666667  3 0 0.1666666666666667  3.5 0 0.1666666666666667  4 0 0.1666666666666667  4.5 0 0.1666666666666667  5 0 0.1666666666666667  5.5 0 0.1666666666666667  6 0 0.1666666666666667  6.5 0 0.1666666666666667  7 0 0.1666666666666667  7.5 0 0.1666666666666667  8 0 0.1666666666666667  8.5 0 0.1666666666666667  9 0 0.1666666666666667  9.5 0 0.1666666666666667  10 0 0.1666666666666667  0 0.5 0.1666666666666667  0.5 0.5 0.1666666666666667  1 0.5 0.1666666666666667  1.5 0.5 0.1666666666666667  2 0.5 0.1666666666666667  2.5 0.5 0.1666666666666667  3 0.5 0.1666666666666667  3.5 0.5 0.1666666666666667  4 0.5 0.1666666666666667  4.5 0.5 0.1666666666666667  5 0.5 0.1666666666666667  5.5 0.5 0.1666666666666667  6 0.5 0.1666666666666667  6.5 0.5 0.1666666666666667  7 0.5 0.1666666666666667  7.5 0.5 0.1666666666666667  8 0.5 0.1666666666666667  8.5 0.5 0.1666666666666667  9 0.5 0.1666666666666667  9.5 0.5 0.1666666666666667  10 0.5 0.1666666666666667  0 1 0.1666666666666667  0.5 1 0.1666666666666667  1 1 0.1666666666666667  1.5 1 0.1666666666666667  2 1 0.1666666666666667  2.5 1 0.1666666666666667  3 1 0.1666666666666667  3.5 1 0.1666666666666667  4 1 0.1666666666666667  4.5 1 0.1666666666666667  5 1 0.1666666666666667  5.5 1 0.1666666666666667  6 1 0.1666666666666667  6.5 1 0.1666666666666667  7 1 0.1666666666666667  7.5 1 0.1666666666666667  8 1 0.1666666666666667  8.5 1 0.1666666666666667  9 1 0.1666666666666667  9.5 1 0.1666666666666667  10 1 0.1666666666666667  0 1.5 0.1666666666666667  0.5 1.5 0.1666666666666667  1 1.5 0.1666666666666667  1.5 1.5 0.1666666666666667  2 1.5 0.1666666666666667  2.5 1.5 0.1666666666666667  3 1.5 0.1666666666666667  3.5 1.5 0.1666666666666667  4 1.5 0.1666666666666667  4.5 1.5 0.1666666666666667  5 1.5 0.1666666666666667  5.5 1.5 0.1666666666666667  6 1.5 0.1666666666666667  6.5 1.5 0.1666666666666667  7 1.5 0.1666666666666667  7.5 1.5 0.1666666666666667  8 1.5 0.1666666666666667  8.5 1.5 0.1666666666666667  9 1.5 0.1666666666666667  9.5 1.5 0.1666666666666667  10 1.5 0.1666666666666667  0 2 0.1666666666666667  0.5 2 0.1666666666666667  1 2 0.1666666666666667  1.5 2 0.1666666666666667  2 2 0.1666666666666667  2.5 2 0.1666666666666667  3 2 0.1666666666666667  3.5 2 0.1666666666666667  4 2 0.1666666666666667  4.5 2 0.1666666666666667  5 2 0.1666666666666667  5.5 2 0.1666666666666667  6 2 0.1666666666666667  6.5 2 0.1666666666666667  7 2 0.1666666666666667  7.5 2 0.1666666666666667  8 2 0.1666666666666667  8.5 2 0.1666666666666667  9 2 0.1666666666666667  9.5 2 0.1666666666666667  10 2 0.1666666666666667  0 2.5 0.1666666666666667  0.5 2.5 0.1666666666666667  1 2.5 0.1666666666666667  1.5 2.5 0.1666666666666667  2 2.5 0.1666666666666667  2.5 2.5 0.1666666666666667  3 2.5 0.1666666666666667  3.5 2.5 0.1666666666666667  4 2.5 0.1666666666666667  4.5 2.5 0.1666666666666667  5 2.5 0.1666666666666667  5.5 2.5 0.1666666666666667  6 2.5 0.1666666666666667  6.5 2.5 0.1666666666666667  7 2.5 0.1666666666666667  7.5 2.5 0.1666666666666667  8 2.5 0.1666666666666667  8.5 2.5 0.1666666666666667  9 2.5 0.1666666666666667  9.5 2.5 0.1666666666666667  10 2.5 0.1666666666666667  0 3 0.1666666666666667  0.5 3 0.1666666666666667  1 3 0.1666666666666667  1.5 3 0.1666666666666667  2 3 0.1666666666666667  2.5 3 0.1666666666666667  3 3 0.1666666666666667  3.5 3 0.1666666666666667  4 3 0.1666666666666667  4.5 3 0.1666666666666667  5 3 0.1666666666666667  5.5 3 0.1666666666666667  6 3 0.1666666666666667  6.5 3 0.1666666666666667  7 3 0.1666666666666667  7.5 3 0.1666666666666667  8 3 0.1666666666666667  8.5 3 0.1666666666666667  9 3 0.1666666666666667  9.5 3 0.1666666666666667  10 3 0.1666666666666667  0 0 0.3333333333333333  0.5 0 0.3333333333333333  1 0 0.3333333333333333  1.5 0 0.3333333333333333  2 0 0.3333333333333333  2.5 0 0.3333333333333333  3 0 0.3333333333333333  3.5 0 0.3333333333333333  4 0 0.3333333333333333  4.5 0 0.3333333333333333  5 0 0.3333333333333333  5.5 0 0.3333333333333333  6 0 0.3333333333333333  6.5 0 0.3333333333333333  7 0 0.3333333333333333  7.5 0 0.3333333333333333  8 0 0.3333333333333333  8.5 0 0.3333333333333333  9 0 0.3333333333333333  9.5 0 0.3333333333333333  10 0 0.3333333333333333  0 0.5 0.3333333333333333  0.5 0.5 0.3333333333333333  1 0.5 0.3333333333333333  1.5 0.5 0.3333333333333333  2 0.5 0.3333333333333333  2.5 0.5 0.3333333333333333  3 0.5 0.3333333333333333  3.5 0.5 0.3333333333333333  4 0.5 0.3333333333333333  4.5 0.5 0.3333333333333333  5 0.5 0.3333333333333333  5.5 0.5 0.3333333333333333  6 0.5 0.3333333333333333  6.5 0.5 0.3333333333333333  7 0.5 0.3333333333333333  7.5 0.5 0.3333333333333333  8 0.5 0.3333333333333333  8.5 0.5 0.3333333333333333  9 0.5 0.3333333333333333  9.5 0.5 0.3333333333333333  10 0.5 0.3333333333333333  0 1 0.3333333333333333  0.5 1 0.3333333333333333  1 1 0.3333333333333333  1.5 1 0.3333333333333333  2 1 0.3333333333333333  2.5 1 0.3333333333333333  3 1 0.3333333333333333  3.5 1 0.3333333333333333  4 1 0.3333333333333333  4.5 1 0.3333333333333333  5 1 0.3333333333333333  5.5 1 0.3333333333333333  6 1 0.3333333333333333  6.5 1 0.3333333333333333  7 1 0.3333333333333333  7.5 1 0.3333333333333333  8 1 0.3333333333333333  8.5 1 0.3333333333333333  9 1 0.3333333333333333  9.5 1 0.3333333333333333  10 1 0.3333333333333333  0 1.5 0.3333333333333333  0.5 1.5 0.3333333333333333  1 1.5 0.3333333333333333  1.5 1.5 0.3333333333333333  2 1.5 0.3333333333333333  2.5 1.5 0.3333333333333333  3 1.5 0.3333333333333333  3.5 1.5 0.3333333333333333  4 1.5 0.3333333333333333  4.5 1.5 0.3333333333333333  5 1.5 0.3333333333333333  5.5 1.5 0.3333333333333333  6 1.5 0.3333333333333333  6.5 1.5 0.3333333333333333  7 1.5 0.3333333333333333  7.5 1.5 0.3333333333333333  8 1.5 0.3333333333333333  8.5 1.5 0.3333333333333333  9 1.5 0.3333333333333333  9.5 1.5 0.3333333333333333  10 1.5 0.3333333333333333  0 2 0.3333333333333333  0.5 2 0.3333333333333333  1 2 0.3333333333333333  1.5 2 0.3333333333333333  2 2 0.3333333333333333  2.5 2 0.3333333333333333  3 2 0.3333333333333333  3.5 2 0.3333333333333333  4 2 0.3333333333333333  4.5 2 0.3333333333333333  5 2 0.3333333333333333  5.5 2 0.3333333333333333  6 2 0.3333333333333333  6.5 2 0.3333333333333333  7 2 0.3333333333333333  7.5 2 0.3333333333333333  8 2 0.3333333333333333  8.5 2 0.3333333333333333  9 2 0.3333333333333333  9.5 2 0.3333333333333333  10 2 0.3333333333333333  0 2.5 0.3333333333333333  0.5 2.5 0.3333333333333333  1 2.5 0.3333333333333333  1.5 2.5 0.3333333333333333  2 2.5 0.3333333333333333  2.5 2.5 0.3333333333333333  3 2.5 0.3333333333333333  3.5 2.5 0.3333333333333333  4 2.5 0.3333333333333333  4.5 2.5 0.3333333333333333  5 2.5 0.3333333333333333  5.5 2.5 0.3333333333333333  6 2.5 0.3333333333333333  6.5 2.5 0.3333333333333333  7 2.5 0.3333333333333333  7.5 2.5 0.3333333333333333  8 2.5 0.3333333333333333  8.5 2.5 0.3333333333333333  9 2.5 0.3333333333333333  9.5 2.5 0.3333333333333333  10 2.5 0.3333333333333333  0 3 0.3333333333333333  0.5 3 0.3333333333333333  1 3 0.3333333333333333  1.5 3 0.3333333333333333  2 3 0.3333333333333333  2.5 3 0.3333333333333333  3 3 0.3333333333333333  3.5 3 0.3333333333333333  4 3 0.3333333333333333  4.5 3 0.3333333333333333  5 3 0.3333333333333333  5.5 3 0.3333333333333333  6 3 0.3333333333333333  6.5 3 0.3333333333333333  7 3 0.3333333333333333  7.5 3 0.3333333333333333  8 3 0.3333333333333333  8.5 3 0.3333333333333333  9 3 0.3333333333333333  9.5 3 0.3333333333333333  10 3 0.3333333333333333  0 0 0.5  0.5 0 0.5  1 0 0.5  1.5 0 0.5  2 0 0.5  2.5 0 0.5  3 0 0.5  3.5 0 0.5  4 0 0.5  4.5 0 0.5  5 0 0.5  5.5 0 0.5  6 0 0.5  6.5 0 0.5  7 0 0.5  7.5 0 0.5  8 0 0.5  8.5 0 0.5  9 0 0.5  9.5 0 0.5  10 0 0.5  0 0.5 0.5  0.5 0.5 0.5  1 0.5 0.5  1.5 0.5 0.5  2 0.5 0.5  2.5 0.5 0.5  3 0.5 0.5  3.5 0.5 0.5  4 0.5 0.5  4.5 0.5 0.5  5 0.5 0.5  5.5 0.5 0.5  6 0.5 0.5  6.5 0.5 0.5  7 0.5 0.5  7.5 0.5 0.5  8 0.5 0.5  8.5 0.5 0.5  9 0.5 0.5  9.5 0.5 0.5  10 0.5 0.5  0 1 0.5  0.5 1 0.5  1 1 0.5  1.5 1 0.5  2 1 0.5  2.5 1 0.5  3 1 0.5  3.5 1 0.5  4 1 0.5  4.5 1 0.5  5 1 0.5  5.5 1 0.5  6 1 0.5  6.5 1 0.5  7 1 0.5  7.5 1 0.5  8 1 0.5  8.5 1 0.5  9 1 0.5  9.5 1 0.5  10 1 0.5  0 1.5 0.5  0.5 1.5 0.5  1 1.5 0.5  1.5 1.5 0.5  2 1.5 0.5  2.5 1.5 0.5  3 1.5 0.5  3.5 1.5 0.5  4 1.5 0.5  4.5 1.5 0.5  5 1.5 0.5  5.5 1.5 0.5  6 1.5 0.5  6.5 1.5 0.5  7 1.5 0.5  7.5 1.5 0.5  8 1.5 0.5  8.
[...]
<PointData  Vectors="f_7-0"> 
<DataArray  type="Float64"  Name="f_7-0"  NumberOfComponents="3" format="ascii">0.0000000000000000e+00 0.0000000000000000e+00 0.0000000000000000e+00  5.6410872175241122e-01 4.6852579963195223e-01 8.7532641854604465e-02  1.3812878444556087e+00 5.2456363411867812e-01 8.9053304697001165e-02  2.2111867792844131e+00 5.2901959892169059e-01 8.9721837209739821e-02  3.0485368480377293e+00 5.2913049285968805e-01 8.9841391085222211e-02  3.8885936695473049e+00 5.2902627764554921e-01 8.9887827997693473e-02  4.7292380061175257e+00 5.2897800599171296e-01 8.9896692758223470e-02  5.5699998594175586e+00 5.2895729969690164e-01 8.9896980693247461e-02  6.4107818754757959e+00 5.2894764804806338e-01 8.9896432893452824e-02  7.2515619088660035e+00 5.2894288253806832e-01 8.9895920358648490e-02  8.0923367624626188e+00 5.2894041468469011e-01 8.9895571074908448e-02  8.9331076284765825e+00 5.2893909005628770e-01 8.9895367213057339e-02  9.7738759850480950e+00 5.2893836592235965e-01 8.9895254233439553e-02  1.0614642864235678e+01 5.2893796684082084e-01 8.9895192290012943e-02  1.1455408899015431e+01 5.2893774601443777e-01 8.9895158461641061e-02  1.2296174458423698e+01 5.2893762364811903e-01 8.9895140014061403e-02  1.3136939752484977e+01 5.2893755594166347e-01 8.9895129957564407e-02  1.3977704899586868e+01 5.2893751876226935e-01 8.9895124502958154e-02  1.4818469966600448e+01 5.2893749887803143e-01 8.9895121612613621e-02  1.5659234992080069e+01 5.2893748923185946e-01 8.9895120222745831e-02  1.6500000000000007e+01 5.2893748636136884e-01 8.9895119788479042e-02  0.0000000000000000e+00 0.0000000000000000e+00 0.0000000000000000e+00  5.4307006805263991e-01 3.0195688540112231e-01 9.1353751001999703e-02  1.3721390879774595e+00 3.5010033893965459e-01 9.0070422670062517e-02  2.2086442456898538e+00 3.5314904239816158e-01 9.0102856083191296e-02  3.0479003043607849e+00 3.5298051189705071e-01 9.0110379767810680e-02  3.8884587523634568e+00 3.5281436944932487e-01 9.0116009129360880e-02  4.7292124490587364e+00 3.5275058400431702e-01 9.0119651648034427e-02  5.5699985348129095e+00 3.5272736209075367e-01 9.0119836205206347e-02  6.4107850137139790e+00 3.5271810273682525e-01 9.0119268292204471e-02  7.2515647472412565e+00 3.5271399448586599e-01 9.0118848001475529e-02  8.0923386330300602e+00 3.5271200806812675e-01 9.0118596768414286e-02  8.9331087489812990e+00 3.5271098613624252e-01 9.0118449965142039e-02  9.7738766306310705e+00 3.5271044038692823e-01 9.0118366602291666e-02  1.0614643229263283e+01 3.5271014313783611e-01 9.0118320227531926e-02  1.1455409103434979e+01 3.5270997961881073e-01 9.0118294577581720e-02  1.2296174572238904e+01 3.5270988927113506e-01 9.0118280408839832e-02  1.3136939815438273e+01 3.5270983934997130e-01 9.0118272601615451e-02  1.3977704933868859e+01 3.5270981195340795e-01 9.0118268332770105e-02  1.4818469984352298e+01 3.5270979730593066e-01 9.0118266057739191e-02  1.5659234999611371e+01 3.5270979019549875e-01 9.0118264964841988e-02  1.6500000000000007e+01 3.5270978809071818e-01 9.0118264642824603e-02  0.0000000000000000e+00 0.0000000000000000e+00 0.0000000000000000e+00  5.3055483044389828e-01 1.4797850936323387e-01 9.4190704193968966e-02  1.3594050660465817e+00 1.7520885530558633e-01 9.0932904923973767e-02  2.2043828074382836e+00 1.7692082934977840e-01 9.0507148702775875e-02  3.0467475906923269e+00 1.7669862296807834e-01 9.0377499821548329e-02  3.8881954193383095e+00 1.7656327709764064e-01 9.0352566009538310e-02  4.7291625873772194e+00 1.7651335336856996e-01 9.0345306992245744e-02  5.5699989334933946e+00 1.7649540980901232e-01 9.0342882872634797e-02  6.4107935724509844e+00 1.7648831404361495e-01 9.0342041991703981e-02  7.2515717865947797e+00 1.7648521330855257e-01 9.0341720449522392e-02  8.0923431658743965e+00 1.7648373090936273e-01 9.0341575440774702e-02  8.9331114428554059e+00 1.7648297337416224e-01 9.0341500244221898e-02  9.7738781768575382e+00 1.7648257058553016e-01 9.0341459453902415e-02  1.0614644101824954e+01 1.7648235175310339e-01 9.0341436902434485e-02  1.1455409591634476e+01 1.7648223154093182e-01 9.0341424267043113e-02  1.2296174843943749e+01 1.7648216517615031e-01 9.0341417166555402e-02  1.3136939965694806e+01 1.7648212852465753e-01 9.0341413192141146e-02  1.3977705015688208e+01 1.7648210841607254e-01 9.0341410991269244e-02  1.4818470026726198e+01 1.7648209766667625e-01 9.0341409808311818e-02  1.5659235017579666e+01 1.7648209244640531e-01 9.0341409247941401e-02  1.6500000000000007e+01 1.7648209089124839e-01 9.0341409079504054e-02  0.0000000000000000e+00 0.0000000000000000e+00 0.0000000000000000e+00  5.2699015165581509e-01 1.1041734330004215e-03 9.4980220448840025e-02  1.3538612191614636e+00 4.4213354899469979e-04 9.1336449369626427e-02  2.2027502976010180e+00 3.2842481394421396e-04 9.0792571610921802e-02  3.0463683514240492e+00 2.8909382651114965e-04 9.0611449574155220e-02  3.8881369423922463e+00 2.7876423712738915e-04 9.0577381509212934e-02  4.7291789203032764e+00 2.6842573933197745e-04 9.0567903916971920e-02  5.5700235029604617e+00 2.6223802255972192e-04 9.0565140683287873e-02  6.4108116316412094e+00 2.5877463475049389e-04 9.0564600259675471e-02  7.2515829654565556e+00 2.5683381617228941e-04 9.0564524043470027e-02  8.0923497032853611e+00 2.5574873409878461e-04 9.0564524767810670e-02  8.9331151701620026e+00 2.5514411057074105e-04 9.0564535556733577e-02  9.7738802736516082e+00 2.5480814181259084e-04 9.0564543954101615e-02  1.0614645273488019e+01 2.5462148379291427e-04 9.0564548671155057e-02  1.1455410244062636e+01 2.5451781688601012e-04 9.0564551047153483e-02  1.2296175206192682e+01 2.5446029894927492e-04 9.0564552213194704e-02  1.3136940165788056e+01 2.5442846436901509e-04 9.0564552782724975e-02  1.3977705124586171e+01 2.5441098325015122e-04 9.0564553061793951e-02  1.4818470083112665e+01 2.5440163473054229e-04 9.0564553200091380e-02  1.5659235041510520e+01 2.5439708942196436e-04 9.0564553278841733e-02  1.6500000000000007e+01 2.5439572997487480e-04 9.0564553298243908e-02  0.0000000000000000e+00 0.0000000000000000e+00 0.0000000000000000e+00  5.3226097006080797e-01 -1.4535711134742610e-01 9.4283769931460717e-02  1.3591814236865625e+00 -1.7444545014905860e-01 9.1372859828970435e-02  2.2051418579465296e+00 -1.7626287490489800e-01 9.0882289704182773e-02  3.0472357711334208e+00 -1.7608335250794324e-01 9.0789810573622606e-02  3.8884436458191192e+00 -1.7599495624724906e-01 9.0786832493863337e-02  4.7293023904147233e+00 -1.7597207889661970e-01 9.0786637094170175e-02  5.5700781700012918e+00 -1.7596836991524148e-01 9.0786504149606762e-02  6.4108380622335268e+00 -1.7596935034712405e-01 9.0787006760489106e-02  7.2515964833055184e+00 -1.7597077786829052e-01 9.0787316728658987e-02  8.0923569048798107e+00 -1.7597181144799953e-01 9.0787485002080406e-02  8.9331190854371130e+00 -1.7597245102782838e-01 9.0787580892062750e-02  9.7738824233189110e+00 -1.7597282436098774e-01 9.0787634288424249e-02  1.0614646460320001e+01 -1.7597303667783804e-01 9.0787663386916836e-02  1.1455410900970657e+01 -1.7597315584483617e-01 9.0787679256130641e-02  1.2296175569817191e+01 -1.7597322228466372e-01 9.0787687945564743e-02  1.3136940366334677e+01 -1.7597325913693018e-01 9.0787692702187450e-02  1.3977705233650880e+01 -1.7597327939064986e-01 9.0787695292055784e-02  1.4818470139570309e+01 -1.7597329022645058e-01 9.0787696670987364e-02  1.5659235065477148e+01 -1.7597329549645957e-01 9.0787697351057142e-02  1.6500000000000007e+01 -1.7597329707580059e-01 9.0787697548382340e-02  0.0000000000000000e+00 0.0000000000000000e+00 0.0000000000000000e+00  5.5094677849527207e-01 -3.0129507801271066e-01 9.3083769368304786e-02  1.3720927057649019e+00 -3.4915897684568598e-01 9.0680513279571176e-02  2.2098561576103344e+00 -3.5233966541309208e-01 9.0803726612450605e-02  3.0487605511996914e+00 -3.5230581211766565e-01 9.0965043541821167e-02  3.8889112355922819e+00 -3.5222200534194237e-01 9.0995188038791433e-02  4.7294616242559524e+00 -3.5219594382185221e-01 9.1004591528860729e-02  5.5701384046749434e+00 -3.5219333161365746e-01 9.1008139918056605e-02  6.4108632414683262e+00 -3.5219534727644253e-01 9.1009631375840144e-02  7.2516081430574086e+00 -3.5219747759677827e-01 9.1010228526426123e-02  8.0923627478764608e+00 -3.5219893835908656e-01 9.1010511259198887e-02  8.9331221509175407e+00 -3.5219982589659588e-01 9.1010662527006764e-02  9.7738840747159053e+00 -3.5220034038667036e-01 9.1010743747744330e-02  1.0614647363221934e+01 -3.5220063164570686e-01 9.1010788143649560e-02  1.1455411398237839e+01 -3.5220079477879790e-01 9.1010812812142267e-02  1.2296175844374039e+01 -3.5220088564697283e-01 9.1010826547781185e-02  1.3136940517566165e+01 -3.5220093601996416e-01 9.1010834175237740e-02  1.3977705315847141e+01 -3.5220096369518517e-01 9.1010838378156544e-02  1.4818470182110165e+01 -3.5220097849876664e-01 9.1010840633336240e-02  1.5659235083538292e+01 -3.5220098569961455e-01 9.1010841744288487e-02  1.6500000000000007e+01 -3.5220098785438475e-01 9.1010842072586084e-02  0.0000000000000000e+00 0.0000000000000000e+00 0.0000000000000000e+00  5.8074898894382432e-01 -4.6586948481254942e-01 8.4707877805616075e-02  1.3805212528271584e+00 -5.2274183896027882e-01 8.9347704508927650e-02  2.2127141268490722e+00 -5.2811826848075716e-01 9.1133507881994841e-02  3.0495727509779935e+00 -5.2840446280070918e-01 9.1181791049688071e-02  3.8891269283947492e+00 -5.2839882552274275e-01 9.1207423894433148e-02  4.7295360329065721e+00 -5.2840668609428609e-01 9.1227025796143169e-02  5.5701661949381878e+00 -5.2841418701971832e-01 9.1231320140403763e-02  6.4108743809215838e+00 -5.2841984449094537e-01 9.1232771675701888e-02  7.2516131984828318e+00 -5.2842359285853735e-01 9.1233339921379997e-02  8.0923652456783888e+00 -5.2842580848039944e-01 9.1233637443581816e-02  8.9331234510681092e+00 -5.2842707800185496e-01 9.1233793802041704e-02  9.7738847713883494e+00 -5.2842779310147536e-01 9.1233878131607687e-02  1.0614647743093562e+01 -5.2842819276025099e-01 9.1233926214753902e-02  1.1455411607211516e+01 -5.2842841527564077e-01 9.1233953614909047e-02  1.2296175959679669e+01 -5.2842853883862606e-01 9.1233969112541044e-02  1.3136940581056420e+01 -5.2842860723870599e-01 9.1233977839533839e-02  1.3977705350350172e+01 -5.2842864479544516e-01 9.1233982700945473e-02  1.4818470199965127e+01 -5.2842866488010198e-01 9.1233985329183032e-02  1.5659235091110743e+01 -5.2842867465595900e-01 9.1233986616150731e-02  1.6500000000000007e+01 -5.2842867754095901e-01 9.1233987018638857e-02  0.0000000000000000e+00 0.0000000000000000e+00 0.0000000000000000e+00  5.6480371940469165e-01 4.6604576827581212e-01 3.0439061021581594e-02  1.3813653143462414e+00 5.2437043526974514e-01 3.0999622555228590e-02  2.2111890888019108e+00 5.2894657077451945e-01 3.1146436190958634e-02  3.0485371218116128e+00 5.2904553785475839e-01 3.1133209998959341e-02  3.8885931692736375e+00 5.2895080504621095e-01 3.1152520886120885e-02  4.7292383531358650e+00 5.2890402337744302e-01 3.1155094716154238e-02  5.5700000258294580e+00 5.2888309918678400e-01 3.1153901721888193e-02  6.4107819170823861e+00 5.2887336452737699e-01 3.1153282067778763e-02  7.2515619290998332e+00 5.2886856018833117e-01 3.1152955186880861e-02  8.0923367738974736e+00 5.2886606371325529e-01 3.1152763269516270e-02  8.9331076340754993e+00 5.2886472347034030e-01 3.1152661321374391e-02  9.7738759878146002e+00 5.2886399177772458e-01 3.1152609388957218e-02  1.0614642865671074e+01 5.2886358895230168e-01 3.1152582616478318e-02  1.1455408899771696e+01 5.2886336623952557e-01 3.1152568652878149e-02  1.2296174458823906e+01 5.2886324291980269e-01 3.1152561319403360e-02  1.3136939752696875e+01 5.2886317472717526e-01 3.1152557440553869e-02  1.3977704899696629e+01 5.2886313729772294e-01 3.1152555384724299e-02  1.4818469966650175e+01 5.2886311728735458e-01 3.1152554314151436e-02  1.5659234992091632e+01 5.2886310758090505e-01 3.1152553803817182e-02  1.6500000000000007e+01 5.2886310467732445e-01 3.1152553636237795e-02  0.0000000000000000e+00 0.0000000000000000e+00 0.0000000000000000e+00  5.4461037938406442e-01 3.0120010034558392e-01 3.2184886807319048e-02  1.3726329735305707e+00 3.4979509495511318e-01 3.1308849675166547e-02  2.2085675254046846e+00 3.5303368398166907e-01 3.1366113301695510e-02  3.0478988642057230e+00 3.5289071253262660e-01 3.1381598077112473e-02  3.8884614600804390e+00 3.5273776147899871e-01 3.1376804664792757e-02  4.7292129368596827e+00 3.5267619696694430e-01 3.1376723136146624e-02  5.5699986023698251e+00 3.5265309013529261e-01 3.1376480796937514e-02  6.4107850460895346e+00 3.5264381976657716e-01 3.1376138797460505e-02  7.2515647681643891e+00 3.5263968035237109e-01 3.1375934199426789e-02  8.0923386424607706e+00 3.5263766430426685e-01 3.1375826278147584e-02  8.9331087532533271e+00 3.5263662449124217e-01 3.1375767684239518e-02  9.7738766328301825e+00 3.5263606924194096e-01 3.1375735802963267e-02  1.0614643230431275e+01 3.5263576698702770e-01 3.1375718605200338e-02  1.1455409104055461e+01 3.5263560083354295e-01 3.1375709310700529e-02  1.2296174572571520e+01 3.5263550910158870e-01 3.1375704262385326e-02  1.3136939815617087e+01 3.5263545845030553e-01 3.1375701514918239e-02  1.3977704933962984e+01 3.5263543066824710e-01 3.1375700026323228e-02  1.4818469984396957e+01 3.5263541582068897e-01 3.1375699238507880e-02  1.5659234999624191e+01 3.5263540861465764e-01 3.1375698862278825e-02  1.6500000000000007e+01 3.5263540647413938e-01 3.1375698750403698e-02  0.0000000000000000e+00 0.0000000000000000e+00 0.0000000000000000e+00  5.3243525094033328e-01 1.4753674063663053e-01 3.2948470032520036e-02  1.3599132306603952e+00 1.7497752326709934e-01 3.1784456104721380e-02  2.2043087351729724e+00 1.7680219125548421e-01 3.1637762810368841e-02  3.0467525212086821e+00 1.7661778085219726e-01 3.1611258593946000e-02  3.8882003047029614e+00 1.7648797918564943e-01 3.1602193565974178e-02  4.7291624667110552e+00 1.7643881295298133e-01 3.1599489229485814e-02  5.5699989283569762e+00 1.7642112959986855e-01 3.1599076582088895e-02  6.4107936110040553e+00 1.7641405321853021e-01 3.1598953657174161e-02  7.2515717989551591e+00 1.7641090867402362e-01 3.1598900700110996e-02  8.0923431679708173e+00 1.7640939300559089e-01 3.1598878394488827e-02  8.9331114436159833e+00 1.7640861598977287e-01 3.1598865338274267e-02  9.7738781773021195e+00 1.7640820218081865e-01 3.1598856781901039e-02  1.0614644102037325e+01 1.7640797726258187e-01 3.1598851394175079e-02  1.1455409591739837e+01 1.7640785374220305e-01 3.1598848099554190e-02  1.2296174844001408e+01 1.7640778558409997e-01 3.1598846126905826e-02  1.3136939965726546e+01 1.7640774795979805e-01 3.1598844971651434e-02  1.3977705015704791e+01 1.7640772732592877e-01 3.1598844311480766e-02  1.4818470026732996e+01 1.7640771629941021e-01 3.1598843949547650e-02  1.5659235017579602e+01 1.7640771094595240e-01 3.1598843776229318e-02  1.6500000000000007e+01 1.7640770935116018e-01 3.1598843722588012e-02  0.0000000000000000e+00 0.0000000000000000e+00 0.0000000000000000e+00  5.2898138649886461e-01 1.0524455854786275e-03 3.3192436420376323e-02  1.3542458947281359e+00 3.1591544189490793e-04 3.2087855935834422e-02  2.2027451484680256e+00 2.6026206998291311e-04 3.1887338935302198e-02  3.0463651421096340e+00 2.2186700482937818e-04 3.1827946546459443e-02  3.8881406283642850e+00 2.0555709848473020e-04 3.1823724972691737e-02  4.7291781351749300e+00 1.9443965983377507e-04 3.1821796163083352e-02  5.5700234929106287e+00 1.8814514500542563e-04 3.1821668038549113e-02  6.4108116533758590e+00 1.8454648381921481e-04 3.1821796164742552e-02  7.2515829571013439e+00 1.8252895611800253e-04 3.1821890332472916e-02  8.0923496976353775e+00 1.8140893287043922e-04 3.1821942231679473e-02  8.9331151677765401e+00 1.8078576798365306e-04 3.1821967302646817e-02  9.7738802723850462e+00 1.8043935219321289e-04 3.1821978998686044e-02  1.0614645272766310e+01 1.8024691213586248e-04 3.1821984322900655e-02  1.1455410243670684e+01 1.8014005428454766e-04 3.1821986706349961e-02  1.2296175205981923e+01 1.8008076559543752e-04 3.1821987773781472e-02  1.3136940165673989e+01 1.8004794973149112e-04 3.1821988256014885e-02  1.3977705124525041e+01 1.8002992963768059e-04 3.1821988476175733e-02  1.4818470083081461e+01 1.8002029300518942e-04 3.1821988578035913e-02  1.5659235041498135e+01 1.8001560896994948e-04 3.1821988625986723e-02  1.6500000000000007e+01 1.8001421138169108e-04 3.1821988638148828e-02  0.0000000000000000e+00 0.0000000000000000e+00 0.0000000000000000e+00  5.3424182565977230e-01 -1.4525035132017780e-01 3.3217007645026733e-02  1.3595332445459389e+00 -1.7440221256131375e-01 3.2286973558154741e-02  2.2051493747375073e+00 -1.7628221920976106e-01 3.2059044690328352e-02  3.0472221637915498e+00 -1.7614786464396714e-01 3.2034946720888510e-02  3.8884460514006394e+00 -1.7606651681113969e-01 3.2042829551549676e-02  4.7293013675676043e+00 -1.7604533289989774e-01 3.2043806495767643e-02  5.5700781209388879e+00 -1.7604239209899417e-01 3.2044364019969629e-02  6.4108380482522822e+00 -1.7604360390237200e-01 3.2044762899306342e-02  7.2515964562250259e+00 -1.7604510244681679e-01 3.2044949257949415e-02  8.0923568952509672e+00 -1.7604616269042303e-01 3.2045039845850505e-02  8.9331190809919345e+00 -1.7604681590965612e-01 3.2045085239145538e-02  9.7738824208162356e+00 -1.7604719662438742e-01 3.2045108565077453e-02  1.0614646458942444e+01 -1.7604741300507515e-01 3.2045120553302067e-02  1.1455410900224390e+01 -1.7604753449998289e-01 3.2045126793889475e-02  1.2296175569408611e+01 -1.7604760227773592e-01 3.2045130091774135e-02  1.3136940366110508e+01 -1.7604763989112210e-01 3.2045131848517268e-02  1.3977705233530298e+01 -1.7604766057184240e-01 3.2045132785327467e-02  1.4818470139510019e+01 -1.7604767163938911e-01 3.2045133276824476e-02  1.5659235065455503e+01 -1.7604767702261973e-01 3.2045133514830307e-02  1.6500000000000007e+01 -1.7604767863143608e-01 3.2045133583941933e-02  0.0000000000000000e+00 0.0000000000000000e+00 0.0000000000000000e+00  5.5321484670044951e-01 -3.0032475715285739e-01 3.3377095113982194e-02  1.3723118578214077e+00 -3.4897449597334607e-01 3.2153476168020764e-02  2.2098842135983658e+00 -3.5239116049560382e-01 3.2188046716325761e-02  3.0487436972248738e+00 -3.5237265768361853e-01 3.2254782401523276e-02  3.8889104266886210e+00 -3.5229372067263209e-01 3.2263971198027479e-02  4.7294611268082001e+00 -3.5226993673681706e-01 3.2266641259862984e-02  5.5701383508543580e+00 -3.5226761637275017e-01 3.2267567485922057e-02  6.4108632031199511e+00 -3.5226970601393853e-01 3.2267963115247489e-02  7.2516081151593168e+00 -3.5227184646920423e-01 3.2268111217200357e-02  8.0923627393875606e+00 -3.5227331136448448e-01 3.2268184034346760e-02  8.9331221463370909e+00 -3.5227420200892179e-01 3.2268225798025442e-02  9.7738840719273696e+00 -3.5227471830123186e-01 3.2268248937742050e-02  1.0614647361682305e+01 -3.5227501092213209e-01 3.2268262010862345e-02  1.1455411397387120e+01 -3.5227517500992866e-01 3.2268269489620388e-02  1.2296175843895101e+01 -3.5227526648931734e-01 3.2268273736087455e-02  1.3136940517299175e+01 -3.5227531723747402e-01 3.2268276127687560e-02  1.3977705315702657e+01 -3.5227534513475506e-01 3.2268277459423927e-02  1.4818470182038844e+01 -3.5227536006327514e-01 3.2268278179123214e-02  1.5659235083513867e+01 -3.5227536732562797e-01 3.2268278534753135e-02  1.6500000000000007e+01 -3.5227536949499000e-01 3.2268278642774553e-02  0.0000000000000000e+00 0.0000000000000000e+00 0.0000000000000000e+00  5.8013622394356723e-01 -4.6452893853271154e-01 2.9892190365558360e-02  1.3812088688750606e+00 -5.2248950798027205e-01 3.1970558843404356e-02  2.2127162027617135e+00 -5.2826776053546476e-01 3.2544104267555912e-02  3.0495252386499665e+00 -5.2846626654715523e-01 3.2479858134357505e-02  3.8891274568740162e+00 -5.2847129981531404e-01 3.2488586945809479e-02  4.7295365299289109e+00 -5.2848148771487957e-01 3.2491677242998555e-02  5.5701659665377603e+00 -5.2848861822941340e-01 3.2491360866714676e-02  6.4108743296776911e+00 -5.2849427643577818e-01 3.2491393409454797e-02  7.2516131763200224e+00 -5.2849797802542176