<?xml version="1.0"?>
<VTKFile type="UnstructuredGrid"  version="0.1"  >
<UnstructuredGrid>
<Piece  NumberOfPoints="588" NumberOfCells="2160">
<Points>
<DataArray  type="Float64"  NumberOfComponents="3"  format="ascii">0 0 0  0.5 0 0  1 0 0  1.5 0 0  2 0 0  2.5 0 0  3 0 0  3.5 0 0  4 0 0  4.5 0 0  5 0 0  5.5 0 0  6 0 0  6.5 0 0  7 0 0  7.5 0 0  8 0 0  8.5 0 0  9 0 0  9.5 0 0  10 0 0  0 0.5 0  0.5 0.5 0  1 0.5 0  1.5 0.5 0  2 0.5 0  2.5 0.5 0  3 0.5 0  3.5 0.5 0  4 0.5 0  4.5 0.5 0  5 0.5 0  5.5 0.5 0  6 0.5 0  6.5 0.5 0  7 0.5 0  7.5 0.5 0  8 0.5 0  8.5 0.5 0  9 0.5 0  9.5 0.5 0  10 0.5 0  0 1 0  0.5 1 0  1 1 0  1.5 1 0  2 1 0  2.5 1 0  3 1 0  3.5 1 0  4 1 0  4.5 1 0  5 1 0  5.5 1 0  6 1 0  6.5 1 0  7 1 0  7.5 1 0  8 1 0  8.5 1 0  9 1 0  9.5 1 0  10 1 0  0 1.5 0  0.5 1.5 0  1 1.5 0  1.5 1.5 0  2 1.5 0  2.5 1.5 0  3 1.5 0  3.5 1.5 0  4 1.5 0  4.5 1.5 0  5 1.5 0  5.5 1.5 0  6 1.5 0  6.5 1.5 0  7 1.5 0  7.5 1.5 0  8 1.5 0  8.5 1.5 0  9 1.5 0  9.5 1.5 0  10 1.5 0  0 2 0  0.5 2 0  1 2 0  1.5 2 0  2 2 0  2.5 2 0  3 2 0  3.5 2 0  4 2 0  4.5 2 0  5 2 0  5.5 2 0  6 2 0  6.5 2 0  7 2 0  7.5 2 0  8 2 0  8.5 2 0  9 2 0  9.5 2 0  10 2 0  0 2.5 0  0.5 2.5 0  1 2.5 0  1.5 2.5 0  2 2.5 0  2.5 2.5 0  3 2.5 0  3.5 2.5 0  4 2.5 0  4.5 2.5 0  5 2.5 0  5.5 2.5 0  6 2.5 0  6.5 2.5 0  7 2.5 0  7.5 2.5 0  8 2.5 0  8.5 2.5 0  9 2.5 0  9.5 2.5 0  10 2.5 0  0 3 0  0.5 3 0  1 3 0  1.5 3 0  2 3 0  2.5 3 0  3 3 0  3.5 3 0  4 3 0  4.5 3 0  5 3 0  5.5 3 0  6 3 0  6.5 3 0  7 3 0  7.5 3 0  8 3 0  8.5 3 0  9 3 0  9.5 3 0  10 3 0  0 0 0.1666666666666667  0.5 0 0.1666666666666667  1 0 0.1666666666666667  1.5 0 0.1666666666666667  2 0 0.1666666666666667  2.5 0 0.1666666666666667  3 0 0.1666666666666667  3.5 0 0.1666666666666667  4 0 0.1666666666666667  4.5 0 0.1666666666666667  5 0 0.1666666666666667  5.5 0 0.1666666666666667  6 0 0.1666666666666667  6.5 0 0.1666666666666667  7 0 0.1666666666666667  7.5 0 0.1666666666666667  8 0 0.1666666666666667  8.5 0 0.1666666666666667  9 0 0.1666666666666667  9.5 0 0.1666666666666667  10 0 0.1666666666666667  0 0.5 0.1666666666666667  0.5 0.5 0.1666666666666667  1 0.5 0.1666666666666667  1.5 0.5 0.1666666666666667  2 0.5 0.1666666666666667  2.5 0.5 0.1666666666666667  3 0.5 0.1666666666666667  3.5 0.5 0.1666666666666667  4 0.5 0.1666666666666667  4.5 0.5 0.1666666666666667  5 0.5 0.1666666666666667  5.5 0.5 0.1666666666666667  6 0.5 0.1666666666666667  6.5 0.5 0.1666666666666667  7 0.5 0.1666666666666667  7.5 0.5 0.1666666666666667  8 0.5 0.1666666666666667  8.5 0.5 0.1666666666666667  9 0.5 0.1666666666666667  9.5 0.5 0.1666666666666667  10 0.5 0.1666666666666667  0 1 0.1666666666666667  0.5 1 0.1666666666666667  1 1 0.1666666666666667  1.5 1 0.1666666666666667  2 1 0.1666666666666667  2.5 1 0.1666666666666667  3 1 0.1666666666666667  3.5 1 0.1666666666666667  4 1 0.1666666666666667  4.5 1 0.1666666666666667  5 1 0.1666666666666667  5.5 1 0.1666666666666667  6 1 0.1666666666666667  6.5 1 0.1666666666666667  7 1 0.1666666666666667  7.5 1 0.1666666666666667  8 1 0.1666666666666667  8.5 1 0.1666666666666667  9 1 0.1666666666666667  9.5 1 0.1666666666666667  10 1 0.1666666666666667  0 1.5 0.1666666666666667  0.5 1.5 0.1666666666666667  1 1.5 0.1666666666666667  1.5 1.5 0.1666666666666667  2 1.5 0.1666666666666667  2.5 1.5 0.1666666666666667  3 1.5 0.1666666666666667  3.5 1.5 0.1666666666666667  4 1.5 0.1666666666666667  4.5 1.5 0.1666666666666667  5 1.5 0.1666666666666667  5.5 1.5 0.1666666666666667  6 1.5 0.1666666666666667  6.5 1.5 0.1666666666666667  7 1.5 0.1666666666666667  7.5 1.5 0.1666666666666667  8 1.5 0.1666666666666667  8.5 1.5 0.1666666666666667  9 1.5 0.1666666666666667  9.5 1.5 0.1666666666666667  10 1.5 0.1666666666666667  0 2 0.1666666666666667  0.5 2 0.1666666666666667  1 2 0.1666666666666667  1.5 2 0.1666666666666667  2 2 0.1666666666666667  2.5 2 0.1666666666666667  3 2 0.1666666666666667  3.5 2 0.1666666666666667  4 2 0.1666666666666667  4.5 2 0.1666666666666667  5 2 0.1666666666666667  5.5 2 0.1666666666666667  6 2 0.1666666666666667  6.5 2 0.1666666666666667  7 2 0.1666666666666667  7.5 2 0.1666666666666667  8 2 0.1666666666666667  8.5 2 0.1666666666666667  9 2 0.1666666666666667  9.5 2 0.1666666666666667  10 2 0.1666666666666667  0 2.5 0.1666666666666667  0.5 2.5 0.1666666666666667  1 2.5 0.1666666666666667  1.5 2.5 0.1666666666666667  2 2.5 0.1666666666666667  2.5 2.5 0.1666666666666667  3 2.5 0.1666666666666667  3.5 2.5 0.1666666666666667  4 2.5 0.1666666666666667  4.5 2.5 0.1666666666666667  5 2.5 0.1666666666666667  5.5 2.5 0.1666666666666667  6 2.5 0.1666666666666667  6.5 2.5 0.1666666666666667  7 2.5 0.1666666666666667  7.5 2.5 0.1666666666666667  8 2.5 0.1666666666666667  8.5 2.5 0.1666666666666667  9 2.5 0.1666666666666667  9.5 2.5 0.1666666666666667  10 2.5 0.1666666666666667  0 3 0.1666666666666667  0.5 3 0.1666666666666667  1 3 0.1666666666666667  1.5 3 0.1666666666666667  2 3 0.1666666666666667  2.5 3 0.1666666666666667  3 3 0.1666666666666667  3.5 3 0.1666666666666667  4 3 0.1666666666666667  4.5 3 0.1666666666666667  5 3 0.1666666666666667  5.5 3 0.1666666666666667  6 3 0.1666666666666667  6.5 3 0.1666666666666667  7 3 0.1666666666666667  7.5 3 0.1666666666666667  8 3 0.1666666666666667  8.5 3 0.1666666666666667  9 3 0.1666666666666667  9.5 3 0.1666666666666667  10 3 0.1666666666666667  0 0 0.3333333333333333  0.5 0 0.3333333333333333  1 0 0.3333333333333333  1.5 0 0.3333333333333333  2 0 0.3333333333333333  2.5 0 0.3333333333333333  3 0 0.3333333333333333  3.5 0 0.3333333333333333  4 0 0.3333333333333333  4.5 0 0.3333333333333333  5 0 0.3333333333333333  5.5 0 0.3333333333333333  6 0 0.3333333333333333  6.5 0 0.3333333333333333  7 0 0.3333333333333333  7.5 0 0.3333333333333333  8 0 0.3333333333333333  8.5 0 0.3333333333333333  9 0 0.3333333333333333  9.5 0 0.3333333333333333  10 0 0.3333333333333333  0 0.5 0.3333333333333333  0.5 0.5 0.3333333333333333  1 0.5 0.3333333333333333  1.5 0.5 0.3333333333333333  2 0.5 0.3333333333333333  2.5 0.5 0.3333333333333333  3 0.5 0.3333333333333333  3.5 0.5 0.3333333333333333  4 0.5 0.3333333333333333  4.5 0.5 0.3333333333333333  5 0.5 0.3333333333333333  5.5 0.5 0.3333333333333333  6 0.5 0.3333333333333333  6.5 0.5 0.3333333333333333  7 0.5 0.3333333333333333  7.5 0.5 0.3333333333333333  8 0.5 0.3333333333333333  8.5 0.5 0.3333333333333333  9 0.5 0.3333333333333333  9.5 0.5 0.3333333333333333  10 0.5 0.3333333333333333  0 1 0.3333333333333333  0.5 1 0.3333333333333333  1 1 0.3333333333333333  1.5 1 0.3333333333333333  2 1 0.3333333333333333  2.5 1 0.3333333333333333  3 1 0.3333333333333333  3.5 1 0.3333333333333333  4 1 0.3333333333333333  4.5 1 0.3333333333333333  5 1 0.3333333333333333  5.5 1 0.3333333333333333  6 1 0.3333333333333333  6.5 1 0.3333333333333333  7 1 0.3333333333333333  7.5 1 0.3333333333333333  8 1 0.3333333333333333  8.5 1 0.3333333333333333  9 1 0.3333333333333333  9.5 1 0.3333333333333333  10 1 0.3333333333333333  0 1.5 0.3333333333333333  0.5 1.5 0.3333333333333333  1 1.5 0.3333333333333333  1.5 1.5 0.3333333333333333  2 1.5 0.3333333333333333  2.5 1.5 0.3333333333333333  3 1.5 0.3333333333333333  3.5 1.5 0.3333333333333333  4 1.5 0.3333333333333333  4.5 1.5 0.3333333333333333  5 1.5 0.3333333333333333  5.5 1.5 0.3333333333333333  6 1.5 0.3333333333333333  6.5 1.5 0.3333333333333333  7 1.5 0.3333333333333333  7.5 1.5 0.3333333333333333  8 1.5 0.3333333333333333  8.5 1.5 0.3333333333333333  9 1.5 0.3333333333333333  9.5 1.5 0.3333333333333333  10 1.5 0.3333333333333333  0 2 0.3333333333333333  0.5 2 0.3333333333333333  1 2 0.3333333333333333  1.5 2 0.3333333333333333  2 2 0.3333333333333333  2.5 2 0.3333333333333333  3 2 0.3333333333333333  3.5 2 0.3333333333333333  4 2 0.3333333333333333  4.5 2 0.3333333333333333  5 2 0.3333333333333333  5.5 2 0.3333333333333333  6 2 0.3333333333333333  6.5 2 0.3333333333333333  7 2 0.3333333333333333  7.5 2 0.3333333333333333  8 2 0.3333333333333333  8.5 2 0.3333333333333333  9 2 0.3333333333333333  9.5 2 0.3333333333333333  10 2 0.3333333333333333  0 2.5 0.3333333333333333  0.5 2.5 0.3333333333333333  1 2.5 0.3333333333333333  1.5 2.5 0.3333333333333333  2 2.5 0.3333333333333333  2.5 2.5 0.3333333333333333  3 2.5 0.3333333333333333  3.5 2.5 0.3333333333333333  4 2.5 0.3333333333333333  4.5 2.5 0.3333333333333333  5 2.5 0.3333333333333333  5.5 2.5 0.3333333333333333  6 2.5 0.3333333333333333  6.5 2.5 0.3333333333333333  7 2.5 0.3333333333333333  7.5 2.5 0.3333333333333333  8 2.5 0.3333333333333333  8.5 2.5 0.3333333333333333  9 2.5 0.3333333333333333  9.5 2.5 0.3333333333333333  10 2.5 0.3333333333333333  0 3 0.3333333333333333  0.5 3 0.3333333333333333  1 3 0.3333333333333333  1.5 3 0.3333333333333333  2 3 0.3333333333333333  2.5 3 0.3333333333333333  3 3 0.3333333333333333  3.5 3 0.3333333333333333  4 3 0.3333333333333333  4.5 3 0.3333333333333333  5 3 0.3333333333333333  5.5 3 0.3333333333333333  6 3 0.3333333333333333  6.5 3 0.3333333333333333  7 3 0.3333333333333333  7.5 3 0.3333333333333333  8 3 0.3333333333333333  8.5 3 0.3333333333333333  9 3 0.3333333333333333  9.5 3 0.3333333333333333  10 3 0.3333333333333333  0 0 0.5  0.5 0 0.5  1 0 0.5  1.5 0 0.5  2 0 0.5  2.5 0 0.5  3 0 0.5  3.5 0 0.5  4 0 0.5  4.5 0 0.5  5 0 0.5  5.5 0 0.5  6 0 0.5  6.5 0 0.5  7 0 0.5  7.5 0 0.5  8 0 0.5  8.5 0 0.5  9 0 0.5  9.5 0 0.5  10 0 0.5  0 0.5 0.5  0.5 0.5 0.5  1 0.5 0.5  1.5 0.5 0.5  2 0.5 0.5  2.5 0.5 0.5  3 0.5 0.5  3.5 0.5 0.5  4 0.5 0.5  4.5 0.5 0.5  5 0.5 0.5  5.5 0.5 0.5  6 0.5 0.5  6.5 0.5 0.5  7 0.5 0.5  7.5 0.5 0.5  8 0.5 0.5  8.5 0.5 0.5  9 0.5 0.5  9.5 0.5 0.5  10 0.5 0.5  0 1 0.5  0.5 1 0.5  1 1 0.5  1.5 1 0.5  2 1 0.5  2.5 1 0.5  3 1 0.5  3.5 1 0.5  4 1 0.5  4.5 1 0.5  5 1 0.5  5.5 1 0.5  6 1 0.5  6.5 1 0.5  7 1 0.5  7.5 1 0.5  8 1 0.5  8.5 1 0.5  9 1 0.5  9.5 1 0.5  10 1 0.5  0 1.5 0.5  0.5 1.5 0.5  1 1.5 0.5  1.5 1.5 0.5  2 1.5 0.5  2.5 1.5 0.5  3 1.5 0.5  3.5 1.5 0.5  4 1.5 0.5  4.5 1.5 0.5  5 1.5 0.5  5.5 1.5 0.5  6 1.5 0.5  6.5 1.5 0.5  7 1.5 0.5  7.5 1.5 0.5  8 1.5 0.5  8.
[...]
<PointData  Vectors="f_7-0"> 
<DataArray  type="Float64"  Name="f_7-0"  NumberOfComponents="3" format="ascii">0.0000000000000000e+00 0.0000000000000000e+00 0.0000000000000000e+00  8.5692038840317042e-01 5.9307489065654828e-01 1.0243481815583755e-01  2.1007912129710742e+00 6.2707823863025880e-01 1.0272268550633536e-01  3.3694445922877940e+00 6.2767093067271440e-01 1.0346904985384421e-01  4.6404876557453161e+00 6.2748458915605720e-01 1.0359171023721069e-01  5.9127801043312456e+00 6.2741214729596240e-01 1.0361653006456994e-01  7.1853065975001371e+00 6.2737805274777525e-01 1.0362537890917874e-01  8.4578402348110853e+00 6.2736200240538853e-01 1.0362649880920272e-01  9.7303515975429971e+00 6.2735408567200812e-01 1.0362626745707437e-01  1.1002844333318905e+01 6.2735000504841332e-01 1.0362596513781469e-01  1.2275325183844453e+01 6.2734787497987765e-01 1.0362573913186347e-01  1.3547799149516539e+01 6.2734675393104622e-01 1.0362559901677397e-01  1.4820269303667185e+01 6.2734616028905776e-01 1.0362551941944366e-01  1.6092737389126995e+01 6.2734584511446256e-01 1.0362547559626664e-01  1.7365204362293699e+01 6.2734567759361448e-01 1.0362545182078944e-01  1.8637670740428682e+01 6.2734558852954980e-01 1.0362543904319933e-01  1.9910136801328708e+01 6.2734554124269692e-01 1.0362543222094593e-01  2.1182602693872198e+01 6.2734551629045887e-01 1.0362542861019751e-01  2.2455068498183969e+01 6.2734550341973572e-01 1.0362542674409142e-01  2.3727534258237061e+01 6.2734549735663347e-01 1.0362542586461490e-01  2.4999999999999993e+01 6.2734549558479691e-01 1.0362542559566919e-01  0.0000000000000000e+00 0.0000000000000000e+00 0.0000000000000000e+00  8.4619327602000116e-01 3.9059169257001647e-01 1.0452244108666903e-01  2.0952424938162988e+00 4.1857998237703620e-01 1.0376466257698656e-01  3.3683510571546313e+00 4.1878484486482431e-01 1.0401090607297341e-01  4.6402385515946190e+00 4.1850498446743140e-01 1.0405373348413384e-01  5.9127423164363417e+00 4.1842124352165067e-01 1.0405596510849587e-01  7.1853134206050830e+00 4.1838707737296971e-01 1.0405684417157891e-01  8.4578503029013596e+00 4.1837269474907246e-01 1.0405634606146305e-01  9.7303587490698096e+00 4.1836623092411573e-01 1.0405576797787151e-01  1.1002848652251108e+01 4.1836306423089431e-01 1.0405538575211871e-01  1.2275327620868808e+01 4.1836145806443170e-01 1.0405516126315376e-01  1.3547800483837330e+01 4.1836062593678142e-01 1.0405503620660897e-01  1.4820270024190828e+01 4.1836018894728122e-01 1.0405496787109016e-01  1.6092737775516014e+01 4.1835995796154657e-01 1.0405493096962881e-01  1.7365204568714322e+01 4.1835983546453565e-01 1.0405491118768442e-01  1.8637670850402500e+01 4.1835977041306377e-01 1.0405490062286714e-01  1.9910136859669528e+01 4.1835973589597297e-01 1.0405489499996459e-01  2.1182602724438013e+01 4.1835971768740926e-01 1.0405489202956390e-01  2.2455068513496791e+01 4.1835970829744090e-01 1.0405489049627717e-01  2.3727534264579305e+01 4.1835970387206844e-01 1.0405488977869495e-01  2.4999999999999993e+01 4.1835970258590333e-01 1.0405488957108779e-01  0.0000000000000000e+00 0.0000000000000000e+00 0.0000000000000000e+00  8.3574172822538662e-01 1.9410544756077516e-01 1.0671725979754043e-01  2.0857370911985718e+00 2.0967000123292520e-01 1.0474571770611690e-01  3.3663401207916603e+00 2.0971741851467535e-01 1.0458972821961797e-01  4.6398088299751725e+00 2.0948388583419036e-01 1.0451598587711636e-01  5.9126952446625163e+00 2.0942025011830095e-01 1.0449442437001095e-01  7.1853431804654031e+00 2.0939423953750264e-01 1.0448820837825928e-01  8.4578793958455147e+00 2.0938343353364536e-01 1.0448589691040130e-01  9.7303780388871512e+00 2.0937867255355333e-01 1.0448505524000221e-01  1.1002859977133923e+01 2.0937635270274602e-01 1.0448468708696734e-01  1.2275333932970630e+01 2.0937518354654794e-01 1.0448451932966031e-01  1.3547803920878913e+01 2.0937457931108985e-01 1.0448443858822104e-01  1.4820271875169150e+01 2.0937426246218918e-01 1.0448439756714643e-01  1.6092738766760274e+01 2.0937409511519028e-01 1.0448437633258273e-01  1.7365205097891444e+01 2.0937400639765025e-01 1.0448436521746723e-01  1.8637671132230640e+01 2.0937395929288211e-01 1.0448435935440346e-01  1.9910137009154063e+01 2.0937393430068563e-01 1.0448435625495692e-01  2.1182602802752303e+01 2.0937392111700492e-01 1.0448435462438951e-01  2.2455068552737057e+01 2.0937391431830762e-01 1.0448435378577275e-01  2.3727534280833762e+01 2.0937391111170175e-01 1.0448435340196811e-01  2.4999999999999993e+01 2.0937391017268592e-01 1.0448435328762275e-01  0.0000000000000000e+00 0.0000000000000000e+00 0.0000000000000000e+00  8.3227925504458089e-01 1.3444062926489583e-03 1.0756006006505289e-01  2.0814989473382548e+00 5.7357489762567505e-04 1.0531373108219079e-01  3.3657847937775456e+00 4.8562444239683979e-04 1.0506510442473038e-01  4.6398555184023218e+00 4.2651553823535860e-04 1.0495530610229184e-01  5.9127913442696407e+00 4.1298398163385359e-04 1.0492394906000606e-01  7.1854270455141256e+00 4.0152204932256179e-04 1.0491690158649747e-01  8.4579307023245125e+00 3.9516275358168350e-04 1.0491466557585845e-01  9.7304073564674614e+00 3.9191262700657872e-04 1.0491404121454219e-01  1.1002876164803345e+01 3.9013959258502197e-04 1.0491387038824873e-01  1.2275342697537779e+01 3.8919383477633120e-04 1.0491382809161270e-01  1.3547808627630188e+01 3.8868986154329797e-04 1.0491381777605849e-01  1.4820274392690107e+01 3.8842116373910855e-04 1.0491381584045471e-01  1.6092740110197575e+01 3.8827803966247105e-04 1.0491381590565727e-01  1.7365205813798202e+01 3.8820182453901190e-04 1.0491381624230062e-01  1.8637671513164594e+01 3.8816126323052308e-04 1.0491381650547292e-01  1.9910137211115348e+01 3.8813971658548194e-04 1.0491381667056433e-01  2.1182602908539469e+01 3.8812834269576397e-04 1.0491381676617591e-01  2.2455068605743200e+01 3.8812247407075208e-04 1.0491381682007572e-01  2.3727534302817897e+01 3.8811970018387228e-04 1.0491381685767991e-01  2.4999999999999993e+01 3.8811888305401816e-04 1.0491381686367966e-01  0.0000000000000000e+00 0.0000000000000000e+00 0.0000000000000000e+00  8.3706877450659967e-01 -1.9128628593774674e-01 1.0725223487039066e-01  2.0861120115282281e+00 -2.0851678611411392e-01 1.0559977080294172e-01  3.3678041741316829e+00 -2.0875603861758280e-01 1.0538625543181607e-01  4.6406032404843209e+00 -2.0860070183374260e-01 1.0535470229938561e-01  5.9130854743982493e+00 -2.0858460786588506e-01 1.0534330516420398e-01  7.1855665238633488e+00 -2.0858711878730649e-01 1.0534278663944872e-01  8.4579965923832976e+00 -2.0859063194035743e-01 1.0534259636420414e-01  9.7304407387032370e+00 -2.0859357955531549e-01 1.0534279324901612e-01  1.1002893479906701e+01 -2.0859540615871969e-01 1.0534299715099631e-01  1.2275351765430436e+01 -2.0859644035393526e-01 1.0534312204503021e-01  1.3547813420641630e+01 -2.0859701080356199e-01 1.0534319376691186e-01  1.4820276935064541e+01 -2.0859731968564496e-01 1.0534323384912879e-01  1.6092741461007765e+01 -2.0859748556189364e-01 1.0534325572877487e-01  1.7365206532072534e+01 -2.0859757427283743e-01 1.0534326750863408e-01  1.8637671894936069e+01 -2.0859762158528616e-01 1.0534327381680605e-01  1.9910137413407263e+01 -2.0859764674682507e-01 1.0534327718096489e-01  2.1182603014472591e+01 -2.0859766003752306e-01 1.0534327896151188e-01  2.2455068658821698e+01 -2.0859766689915191e-01 1.0534327988340475e-01  2.3727534324843788e+01 -2.0859767014606051e-01 1.0534328032833340e-01  2.4999999999999993e+01 -2.0859767110509747e-01 1.0534328045252049e-01  0.0000000000000000e+00 0.0000000000000000e+00 0.0000000000000000e+00  8.5358594951784716e-01 -3.8913058461186123e-01 1.0651100732289040e-01  2.0967879423171687e+00 -4.1729848623534826e-01 1.0538762466257554e-01  3.3710243908015882e+00 -4.1769138475053902e-01 1.0557268186861107e-01  4.6416615999939168e+00 -4.1756190688758449e-01 1.0575397250152807e-01  5.9134403916215144e+00 -4.1756572500710354e-01 1.0575969917791968e-01  7.1857019011077616e+00 -4.1756701854758482e-01 1.0576693216775544e-01  8.4580553955900442e+00 -4.1757328208891009e-01 1.0577044657820361e-01  9.7304682301681584e+00 -4.1757773872575671e-01 1.0577158884487227e-01  1.1002907022135997e+01 -4.1758029395133872e-01 1.0577217054551974e-01  1.2275358691294645e+01 -4.1758174898463241e-01 1.0577245024364010e-01  1.3547817032759419e+01 -4.1758254399095990e-01 1.0577259054999480e-01  1.4820278836929765e+01 -4.1758297286121931e-01 1.0577266373154505e-01  1.6092742467804673e+01 -4.1758320293687995e-01 1.0577270208034009e-01  1.7365207066418122e+01 -4.1758332586520541e-01 1.0577272230988681e-01  1.8637672178672002e+01 -4.1758339140029754e-01 1.0577273303153457e-01  1.9910137563679619e+01 -4.1758342624678341e-01 1.0577273871431557e-01  2.1182603093148465e+01 -4.1758344465111158e-01 1.0577274171033231e-01  2.2455068698243000e+01 -4.1758345415217557e-01 1.0577274325563463e-01  2.3727534341209470e+01 -4.1758345864942364e-01 1.0577274399292484e-01  2.4999999999999993e+01 -4.1758345997464413e-01 1.0577274420758634e-01  0.0000000000000000e+00 0.0000000000000000e+00 0.0000000000000000e+00  8.8082964616822890e-01 -5.9206929399511077e-01 1.0151197229133388e-01  2.1022076195896258e+00 -6.2494623512318115e-01 1.0407039497483073e-01  3.3727131881147350e+00 -6.2645959130320583e-01 1.0617266913332454e-01  4.6422628323448096e+00 -6.2650894798106482e-01 1.0617273958272162e-01  5.9135847230031811e+00 -6.2651957763634258e-01 1.0616454629918416e-01  7.1857592921343016e+00 -6.2654112076599255e-01 1.0619518583302813e-01  8.4580813056081503e+00 -6.2655431592384814e-01 1.0619894494108707e-01  9.7304793243308421e+00 -6.2656097467925620e-01 1.0620061917954821e-01  1.1002912439288350e+01 -6.2656480889623267e-01 1.0620149309969207e-01  1.2275361442867421e+01 -6.2656687907077158e-01 1.0620184785830303e-01  1.3547818455627290e+01 -6.2656798610485975e-01 1.0620202403429342e-01  1.4820279584067826e+01 -6.2656857929917420e-01 1.0620211295847674e-01  1.6092742862664668e+01 -6.2656889580683539e-01 1.0620215860871395e-01  1.7365207275789277e+01 -6.2656906450929573e-01 1.0620218252139488e-01  1.8637672289801611e+01 -6.2656915434424321e-01 1.0620219512934526e-01  1.9910137622523553e+01 -6.2656920207978251e-01 1.0620220178920990e-01  2.1182603123953790e+01 -6.2656922728297149e-01 1.0620220529489430e-01  2.2455068713678259e+01 -6.2656924029181704e-01 1.0620220710171571e-01  2.3727534347612895e+01 -6.2656924645202461e-01 1.0620220795308524e-01  2.4999999999999993e+01 -6.2656924824271520e-01 1.0620220822116536e-01  0.0000000000000000e+00 0.0000000000000000e+00 0.0000000000000000e+00  8.5848146253922997e-01 5.9153531189095243e-01 3.3615038623408797e-02  2.1008967345851275e+00 6.2667620556020343e-01 3.3269402038932805e-02  3.3694348331646959e+00 6.2750945119345225e-01 3.3854252893175417e-02  4.6404903744937345e+00 6.2733311064692787e-01 3.3936724606152824e-02  5.9127799293033831e+00 6.2726588466238942e-01 3.3953593175007332e-02  7.1853065196721158e+00 6.2723428491123612e-01 3.3961875169532828e-02  8.4578402498248142e+00 6.2721871575276278e-01 3.3963428306816548e-02  9.7303515979474557e+00 6.2721090243738487e-01 3.3963639496220402e-02  1.1002844330960611e+01 6.2720685208992155e-01 3.3963639509659610e-02  1.2275325182976745e+01 6.2720472657632642e-01 3.3963592176169906e-02  1.3547799149174311e+01 6.2720360386301643e-01 3.3963551675342485e-02  1.4820269303484999e+01 6.2720300842190324e-01 3.3963526354565406e-02  1.6092737389031740e+01 6.2720269203298706e-01 3.3963511781027952e-02  1.7365204362245379e+01 6.2720252377839858e-01 3.3963503672629493e-02  1.8637670740403156e+01 6.2720243429883338e-01 3.3963499256939818e-02  1.9910136801314106e+01 6.2720238678449480e-01 3.3963496883037667e-02  2.1182602693862442e+01 6.2720236171009525e-01 3.3963495621773143e-02  2.2455068498173919e+01 6.2720234877641545e-01 3.3963494968745372e-02  2.3727534258224562e+01 6.2720234268231223e-01 3.3963494659098738e-02  2.4999999999999993e+01 6.2720234089293292e-01 3.3963494560804650e-02  0.0000000000000000e+00 0.0000000000000000e+00 0.0000000000000000e+00  8.4759355876161591e-01 3.9024964055701783e-01 3.4751323081404425e-02  2.0955260143339873e+00 4.1817186613545126e-01 3.4204827044145132e-02  3.3683748485677265e+00 4.1860446114192301e-01 3.4355730068625766e-02  4.6402310887167930e+00 4.1835269765328570e-01 3.4391027235320067e-02  5.9127431804202031e+00 4.1827500131627460e-01 3.4391990221545085e-02  7.1853135770987748e+00 4.1824330873503329e-01 3.4393249570208465e-02  8.4578503322997847e+00 4.1822943996107004e-01 3.4393351885849854e-02  9.7303587500702839e+00 4.1822307469268089e-01 3.4393225372359386e-02  1.1002848651826152e+01 4.1821992765531046e-01 3.4393118530129413e-02  1.2275327620658370e+01 4.1821831870400888e-01 3.4393048476297081e-02  1.3547800483568702e+01 4.1821748082193366e-01 3.4393007842160844e-02  1.4820270023998905e+01 4.1821703976252961e-01 3.4392985141460497e-02  1.6092737775409173e+01 4.1821680631662700e-01 3.4392972723773313e-02  1.7365204568656733e+01 4.1821668241648474e-01 3.4392966023008800e-02  1.8637670850370974e+01 4.1821661659201659e-01 3.4392962431666015e-02  1.9910136859651796e+01 4.1821658165702641e-01 3.4392960516350088e-02  2.1182602724427014e+01 4.1821656322585699e-01 3.4392959503377153e-02  2.2455068513487678e+01 4.1821655372048067e-01 3.4392958980303000e-02  2.3727534264569151e+01 4.1821654923992169e-01 3.4392958735708391e-02  2.4999999999999993e+01 4.1821654793359830e-01 3.4392958665050731e-02  0.0000000000000000e+00 0.0000000000000000e+00 0.0000000000000000e+00  8.3735176586958537e-01 1.9384347836366492e-01 3.5582261855952084e-02  2.0859470998201415e+00 2.0939032138258923e-01 3.5048544025950076e-02  3.3664307827994926e+00 2.0954493048718631e-01 3.4893416370421156e-02  4.6397858464059274e+00 2.0933578490840313e-01 3.4838897630821153e-02  5.9126976623267948e+00 2.0927556927324481e-01 3.4828211667882782e-02  7.1853434426113827e+00 2.0925089356978654e-01 3.4824457779758920e-02  8.4578793641756871e+00 2.0924031718242814e-01 3.4823123044438964e-02  9.7303780315243209e+00 2.0923558218664329e-01 3.4822716209908365e-02  1.1002859973762749e+01 2.0923324588934014e-01 3.4822552292041398e-02  1.2275333930448083e+01 2.0923205777803169e-01 3.4822482978072590e-02  1.3547803919149443e+01 2.0923144100003480e-01 3.4822452544090825e-02  1.4820271874216917e+01 2.0923111677947798e-01 3.4822437851601502e-02  1.6092738766249870e+01 2.0923094529087308e-01 3.4822430467891220e-02  1.7365205097615302e+01 2.0923085430650051e-01 3.4822426680457097e-02  1.8637671132082332e+01 2.0923080597858632e-01 3.4822424705882558e-02  1.9910137009074759e+01 2.0923078033185694e-01 3.4822423668585969e-02  2.1182602802709823e+01 2.0923076680138072e-01 3.4822423124783002e-02  2.2455068552713787e+01 2.0923075982344722e-01 3.4822422846093465e-02  2.3727534280820457e+01 2.0923075653222317e-01 3.4822422718875652e-02  2.4999999999999993e+01 2.0923075556916124e-01 3.4822422680066883e-02  0.0000000000000000e+00 0.0000000000000000e+00 0.0000000000000000e+00  8.3389553260108329e-01 1.2791765560517757e-03 3.6030910485596472e-02  2.0816117091752377e+00 4.0092369989817834e-04 3.5600321912456379e-02  3.3659434025421646e+00 3.5124407557466064e-04 3.5364474386254757e-02  4.6398147535075456e+00 2.8790661336702367e-04 3.5271054599030516e-02  5.9127940706045026e+00 2.7074937062361419e-04 3.5258952282583134e-02  7.1854274684736081e+00 2.5890700994016643e-04 3.5254063178712672e-02  8.4579305043505055e+00 2.5227460888280814e-04 3.5252434286661166e-02  9.7304073399248683e+00 2.4889385101427774e-04 3.5252050377265559e-02  1.1002876157008386e+01 2.4705581330279071e-04 3.5251930192508600e-02  1.2275342691714396e+01 2.4607612771272431e-04 3.5251897252288528e-02  1.3547808624563148e+01 2.4555471279331324e-04 3.5251888802338607e-02  1.4820274391144117e+01 2.4527684008712107e-04 3.5251886734530349e-02  1.6092740109376518e+01 2.4512883928066575e-04 3.5251886389456685e-02  1.7365205813359278e+01 2.4505003769145908e-04 3.5251886428526835e-02  1.8637671512931583e+01 2.4500810345177905e-04 3.5251886512306388e-02  1.9910137210992051e+01 2.4498582811427174e-04 3.5251886575560228e-02  2.1182602908474916e+01 2.4497406988851806e-04 3.5251886614839432e-02  2.2455068605710835e+01 2.4496800319466071e-04 3.5251886638002300e-02  2.3727534302804433e+01 2.4496513672469768e-04 3.5251886652569273e-02  2.4999999999999993e+01 2.4496429496695930e-04 3.5251886653704018e-02  0.0000000000000000e+00 0.0000000000000000e+00 0.0000000000000000e+00  8.3861275153992287e-01 -1.9135893900884790e-01 3.6258799954899286e-02  2.0862240963878729e+00 -2.0855183463880000e-01 3.5975203947344395e-02  3.3679695664705274e+00 -2.0884370019146103e-01 3.5719041544306759e-02  4.6405514846800786e+00 -2.0873625626696291e-01 3.5683488139406416e-02  5.9130890032633596e+00 -2.0872501290916437e-01 3.5684207276086372e-02  7.1855669824202835e+00 -2.0872894159222571e-01 3.5681755427034396e-02  8.4579962010229846e+00 -2.0873339931688284e-01 3.5681243490605120e-02  9.7304407409840632e+00 -2.0873656838775748e-01 3.5681243114565102e-02  1.1002893465992862e+01 -2.0873848491513364e-01 3.5681269899159707e-02  1.2275351757159648e+01 -2.0873955983303913e-01 3.5681301995081058e-02  1.3547813417147390e+01 -2.0874014780837852e-01 3.5681323007909445e-02  1.4820276933276483e+01 -2.0874046531203105e-01 3.5681335444894456e-02  1.6092741460066755e+01 -2.0874063554990185e-01 3.5681342491807662e-02  1.7365206531576419e+01 -2.0874072650262251e-01 3.5681346348679671e-02  1.8637671894674742e+01 -2.0874077498845078e-01 3.5681348432797536e-02  1.9910137413269798e+01 -2.0874080076764356e-01 3.5681349550247099e-02  2.1182603014401611e+01 -2.0874081438244677e-01 3.5681350143335400e-02  2.2455068658788058e+01 -2.0874082141041997e-01 3.5681350451135380e-02  2.3727534324833012e+01 -2.0874082473501557e-01 3.5681350599089175e-02  2.4999999999999993e+01 -2.0874082571446384e-01 3.5681350638855830e-02  0.0000000000000000e+00 0.0000000000000000e+00 0.0000000000000000e+00  8.5543166618587374e-01 -3.8878715705714306e-01 3.6571209176472656e-02  2.0968032659293074e+00 -4.1711846006239317e-01 3.5952823501842139e-02  3.3711797199748972e+00 -4.1781717655661260e-01 3.6001390521891115e-02  4.6416210862340472e+00 -4.1769989690349152e-01 3.6102715167394994e-02  5.9134395537214299e+00 -4.1770321492589724e-01 3.6104699931584973e-02  7.1857027852467708e+00 -4.1770942192552118e-01 3.6108382024762777e-02  8.4580550934291487e+00 -4.1771611457251384e-01 3.6109973661743830e-02  9.7304682073136419e+00 -4.1772074707242018e-01 3.6110390270358970e-02  1.1002907010846675e+01 -4.1772339905290590e-01 3.6110616614693947e-02  1.2275358684255337e+01 -4.1772488085785248e-01 3.6110716142405276e-02  1.3547817029786160e+01 -4.1772568782710290e-01 3.6110763736398280e-02  1.4820278835468969e+01 -4.1772612226831812e-01 3.6110788292054503e-02  1.6092742467031893e+01 -4.1772635494142729e-01 3.6110800946907211e-02  1.7365207066015028e+01 -4.1772647917496297e-01 3.6110807565112354e-02  1.8637672178461798e+01 -4.1772654538196136e-01 3.6110811059493743e-02  1.9910137563569666e+01 -4.1772658057778989e-01 3.6110812906836806e-02  2.1182603093092791e+01 -4.1772659916442051e-01 3.6110813879243038e-02  2.2455068698218962e+01 -4.1772660875887047e-01 3.6110814380196525e-02  2.3727534341205136e+01 -4.1772661329873623e-01 3.6110814618821992e-02  2.4999999999999993e+01 -4.1772661463590921e-01 3.6110814690298039e-02  0.0000000000000000e+00 0.0000000000000000e+00 0.0000000000000000e+00  8.7805751968792245e-01 -5.9127485748982855e-01 3.4528921103151151e-02  2.1025990613547738e+00 -6.2444422546039557e-01 3.5304312189318468e-02  3.3729134736908075e+00 -6.2675365885478529e-01 3.6583639606103086e-02  4.6421837575512210e+00 -6.2663379838414757e-01 3.6503548962474347e-02  5.9135840669267656e+00 -6.2665405813076880e-01 3.6519512604221378e-02  7.1857623651637530e+00 -6.2668520704671793e-01 3.6538012104054322e-02  8.4580805938227659e+00 -6.2669702054302734e-01 3.6538560517043253e-02  9.7304792858958447e+00 -6.2670402495795485e-01 3.6539630387690196e-02  1.1002912443774930e+01 -6.2670793629337918