<?xml version="1.0"?>
<VTKFile type="UnstructuredGrid"  version="0.1"  >
<UnstructuredGrid>
<Piece  NumberOfPoints="588" NumberOfCells="2160">
<Points>
<DataArray  type="Float64"  NumberOfComponents="3"  format="ascii">0 0 0  0.5 0 0  1 0 0  1.5 0 0  2 0 0  2.5 0 0  3 0 0  3.5 0 0  4 0 0  4.5 0 0  5 0 0  5.5 0 0  6 0 0  6.5 0 0  7 0 0  7.5 0 0  8 0 0  8.5 0 0  9 0 0  9.5 0 0  10 0 0  0 0.5 0  0.5 0.5 0  1 0.5 0  1.5 0.5 0  2 0.5 0  2.5 0.5 0  3 0.5 0  3.5 0.5 0  4 0.5 0  4.5 0.5 0  5 0.5 0  5.5 0.5 0  6 0.5 0  6.5 0.5 0  7 0.5 0  7.5 0.5 0  8 0.5 0  8.5 0.5 0  9 0.5 0  9.5 0.5 0  10 0.5 0  0 1 0  0.5 1 0  1 1 0  1.5 1 0  2 1 0  2.5 1 0  3 1 0  3.5 1 0  4 1 0  4.5 1 0  5 1 0  5.5 1 0  6 1 0  6.5 1 0  7 1 0  7.5 1 0  8 1 0  8.5 1 0  9 1 0  9.5 1 0  10 1 0  0 1.5 0  0.5 1.5 0  1 1.5 0  1.5 1.5 0  2 1.5 0  2.5 1.5 0  3 1.5 0  3.5 1.5 0  4 1.5 0  4.5 1.5 0  5 1.5 0  5.5 1.5 0  6 1.5 0  6.5 1.5 0  7 1.5 0  7.5 1.5 0  8 1.5 0  8.5 1.5 0  9 1.5 0  9.5 1.5 0  10 1.5 0  0 2 0  0.5 2 0  1 2 0  1.5 2 0  2 2 0  2.5 2 0  3 2 0  3.5 2 0  4 2 0  4.5 2 0  5 2 0  5.5 2 0  6 2 0  6.5 2 0  7 2 0  7.5 2 0  8 2 0  8.5 2 0  9 2 0  9.5 2 0  10 2 0  0 2.5 0  0.5 2.5 0  1 2.5 0  1.5 2.5 0  2 2.5 0  2.5 2.5 0  3 2.5 0  3.5 2.5 0  4 2.5 0  4.5 2.5 0  5 2.5 0  5.5 2.5 0  6 2.5 0  6.5 2.5 0  7 2.5 0  7.5 2.5 0  8 2.5 0  8.5 2.5 0  9 2.5 0  9.5 2.5 0  10 2.5 0  0 3 0  0.5 3 0  1 3 0  1.5 3 0  2 3 0  2.5 3 0  3 3 0  3.5 3 0  4 3 0  4.5 3 0  5 3 0  5.5 3 0  6 3 0  6.5 3 0  7 3 0  7.5 3 0  8 3 0  8.5 3 0  9 3 0  9.5 3 0  10 3 0  0 0 0.1666666666666667  0.5 0 0.1666666666666667  1 0 0.1666666666666667  1.5 0 0.1666666666666667  2 0 0.1666666666666667  2.5 0 0.1666666666666667  3 0 0.1666666666666667  3.5 0 0.1666666666666667  4 0 0.1666666666666667  4.5 0 0.1666666666666667  5 0 0.1666666666666667  5.5 0 0.1666666666666667  6 0 0.1666666666666667  6.5 0 0.1666666666666667  7 0 0.1666666666666667  7.5 0 0.1666666666666667  8 0 0.1666666666666667  8.5 0 0.1666666666666667  9 0 0.1666666666666667  9.5 0 0.1666666666666667  10 0 0.1666666666666667  0 0.5 0.1666666666666667  0.5 0.5 0.1666666666666667  1 0.5 0.1666666666666667  1.5 0.5 0.1666666666666667  2 0.5 0.1666666666666667  2.5 0.5 0.1666666666666667  3 0.5 0.1666666666666667  3.5 0.5 0.1666666666666667  4 0.5 0.1666666666666667  4.5 0.5 0.1666666666666667  5 0.5 0.1666666666666667  5.5 0.5 0.1666666666666667  6 0.5 0.1666666666666667  6.5 0.5 0.1666666666666667  7 0.5 0.1666666666666667  7.5 0.5 0.1666666666666667  8 0.5 0.1666666666666667  8.5 0.5 0.1666666666666667  9 0.5 0.1666666666666667  9.5 0.5 0.1666666666666667  10 0.5 0.1666666666666667  0 1 0.1666666666666667  0.5 1 0.1666666666666667  1 1 0.1666666666666667  1.5 1 0.1666666666666667  2 1 0.1666666666666667  2.5 1 0.1666666666666667  3 1 0.1666666666666667  3.5 1 0.1666666666666667  4 1 0.1666666666666667  4.5 1 0.1666666666666667  5 1 0.1666666666666667  5.5 1 0.1666666666666667  6 1 0.1666666666666667  6.5 1 0.1666666666666667  7 1 0.1666666666666667  7.5 1 0.1666666666666667  8 1 0.1666666666666667  8.5 1 0.1666666666666667  9 1 0.1666666666666667  9.5 1 0.1666666666666667  10 1 0.1666666666666667  0 1.5 0.1666666666666667  0.5 1.5 0.1666666666666667  1 1.5 0.1666666666666667  1.5 1.5 0.1666666666666667  2 1.5 0.1666666666666667  2.5 1.5 0.1666666666666667  3 1.5 0.1666666666666667  3.5 1.5 0.1666666666666667  4 1.5 0.1666666666666667  4.5 1.5 0.1666666666666667  5 1.5 0.1666666666666667  5.5 1.5 0.1666666666666667  6 1.5 0.1666666666666667  6.5 1.5 0.1666666666666667  7 1.5 0.1666666666666667  7.5 1.5 0.1666666666666667  8 1.5 0.1666666666666667  8.5 1.5 0.1666666666666667  9 1.5 0.1666666666666667  9.5 1.5 0.1666666666666667  10 1.5 0.1666666666666667  0 2 0.1666666666666667  0.5 2 0.1666666666666667  1 2 0.1666666666666667  1.5 2 0.1666666666666667  2 2 0.1666666666666667  2.5 2 0.1666666666666667  3 2 0.1666666666666667  3.5 2 0.1666666666666667  4 2 0.1666666666666667  4.5 2 0.1666666666666667  5 2 0.1666666666666667  5.5 2 0.1666666666666667  6 2 0.1666666666666667  6.5 2 0.1666666666666667  7 2 0.1666666666666667  7.5 2 0.1666666666666667  8 2 0.1666666666666667  8.5 2 0.1666666666666667  9 2 0.1666666666666667  9.5 2 0.1666666666666667  10 2 0.1666666666666667  0 2.5 0.1666666666666667  0.5 2.5 0.1666666666666667  1 2.5 0.1666666666666667  1.5 2.5 0.1666666666666667  2 2.5 0.1666666666666667  2.5 2.5 0.1666666666666667  3 2.5 0.1666666666666667  3.5 2.5 0.1666666666666667  4 2.5 0.1666666666666667  4.5 2.5 0.1666666666666667  5 2.5 0.1666666666666667  5.5 2.5 0.1666666666666667  6 2.5 0.1666666666666667  6.5 2.5 0.1666666666666667  7 2.5 0.1666666666666667  7.5 2.5 0.1666666666666667  8 2.5 0.1666666666666667  8.5 2.5 0.1666666666666667  9 2.5 0.1666666666666667  9.5 2.5 0.1666666666666667  10 2.5 0.1666666666666667  0 3 0.1666666666666667  0.5 3 0.1666666666666667  1 3 0.1666666666666667  1.5 3 0.1666666666666667  2 3 0.1666666666666667  2.5 3 0.1666666666666667  3 3 0.1666666666666667  3.5 3 0.1666666666666667  4 3 0.1666666666666667  4.5 3 0.1666666666666667  5 3 0.1666666666666667  5.5 3 0.1666666666666667  6 3 0.1666666666666667  6.5 3 0.1666666666666667  7 3 0.1666666666666667  7.5 3 0.1666666666666667  8 3 0.1666666666666667  8.5 3 0.1666666666666667  9 3 0.1666666666666667  9.5 3 0.1666666666666667  10 3 0.1666666666666667  0 0 0.3333333333333333  0.5 0 0.3333333333333333  1 0 0.3333333333333333  1.5 0 0.3333333333333333  2 0 0.3333333333333333  2.5 0 0.3333333333333333  3 0 0.3333333333333333  3.5 0 0.3333333333333333  4 0 0.3333333333333333  4.5 0 0.3333333333333333  5 0 0.3333333333333333  5.5 0 0.3333333333333333  6 0 0.3333333333333333  6.5 0 0.3333333333333333  7 0 0.3333333333333333  7.5 0 0.3333333333333333  8 0 0.3333333333333333  8.5 0 0.3333333333333333  9 0 0.3333333333333333  9.5 0 0.3333333333333333  10 0 0.3333333333333333  0 0.5 0.3333333333333333  0.5 0.5 0.3333333333333333  1 0.5 0.3333333333333333  1.5 0.5 0.3333333333333333  2 0.5 0.3333333333333333  2.5 0.5 0.3333333333333333  3 0.5 0.3333333333333333  3.5 0.5 0.3333333333333333  4 0.5 0.3333333333333333  4.5 0.5 0.3333333333333333  5 0.5 0.3333333333333333  5.5 0.5 0.3333333333333333  6 0.5 0.3333333333333333  6.5 0.5 0.3333333333333333  7 0.5 0.3333333333333333  7.5 0.5 0.3333333333333333  8 0.5 0.3333333333333333  8.5 0.5 0.3333333333333333  9 0.5 0.3333333333333333  9.5 0.5 0.3333333333333333  10 0.5 0.3333333333333333  0 1 0.3333333333333333  0.5 1 0.3333333333333333  1 1 0.3333333333333333  1.5 1 0.3333333333333333  2 1 0.3333333333333333  2.5 1 0.3333333333333333  3 1 0.3333333333333333  3.5 1 0.3333333333333333  4 1 0.3333333333333333  4.5 1 0.3333333333333333  5 1 0.3333333333333333  5.5 1 0.3333333333333333  6 1 0.3333333333333333  6.5 1 0.3333333333333333  7 1 0.3333333333333333  7.5 1 0.3333333333333333  8 1 0.3333333333333333  8.5 1 0.3333333333333333  9 1 0.3333333333333333  9.5 1 0.3333333333333333  10 1 0.3333333333333333  0 1.5 0.3333333333333333  0.5 1.5 0.3333333333333333  1 1.5 0.3333333333333333  1.5 1.5 0.3333333333333333  2 1.5 0.3333333333333333  2.5 1.5 0.3333333333333333  3 1.5 0.3333333333333333  3.5 1.5 0.3333333333333333  4 1.5 0.3333333333333333  4.5 1.5 0.3333333333333333  5 1.5 0.3333333333333333  5.5 1.5 0.3333333333333333  6 1.5 0.3333333333333333  6.5 1.5 0.3333333333333333  7 1.5 0.3333333333333333  7.5 1.5 0.3333333333333333  8 1.5 0.3333333333333333  8.5 1.5 0.3333333333333333  9 1.5 0.3333333333333333  9.5 1.5 0.3333333333333333  10 1.5 0.3333333333333333  0 2 0.3333333333333333  0.5 2 0.3333333333333333  1 2 0.3333333333333333  1.5 2 0.3333333333333333  2 2 0.3333333333333333  2.5 2 0.3333333333333333  3 2 0.3333333333333333  3.5 2 0.3333333333333333  4 2 0.3333333333333333  4.5 2 0.3333333333333333  5 2 0.3333333333333333  5.5 2 0.3333333333333333  6 2 0.3333333333333333  6.5 2 0.3333333333333333  7 2 0.3333333333333333  7.5 2 0.3333333333333333  8 2 0.3333333333333333  8.5 2 0.3333333333333333  9 2 0.3333333333333333  9.5 2 0.3333333333333333  10 2 0.3333333333333333  0 2.5 0.3333333333333333  0.5 2.5 0.3333333333333333  1 2.5 0.3333333333333333  1.5 2.5 0.3333333333333333  2 2.5 0.3333333333333333  2.5 2.5 0.3333333333333333  3 2.5 0.3333333333333333  3.5 2.5 0.3333333333333333  4 2.5 0.3333333333333333  4.5 2.5 0.3333333333333333  5 2.5 0.3333333333333333  5.5 2.5 0.3333333333333333  6 2.5 0.3333333333333333  6.5 2.5 0.3333333333333333  7 2.5 0.3333333333333333  7.5 2.5 0.3333333333333333  8 2.5 0.3333333333333333  8.5 2.5 0.3333333333333333  9 2.5 0.3333333333333333  9.5 2.5 0.3333333333333333  10 2.5 0.3333333333333333  0 3 0.3333333333333333  0.5 3 0.3333333333333333  1 3 0.3333333333333333  1.5 3 0.3333333333333333  2 3 0.3333333333333333  2.5 3 0.3333333333333333  3 3 0.3333333333333333  3.5 3 0.3333333333333333  4 3 0.3333333333333333  4.5 3 0.3333333333333333  5 3 0.3333333333333333  5.5 3 0.3333333333333333  6 3 0.3333333333333333  6.5 3 0.3333333333333333  7 3 0.3333333333333333  7.5 3 0.3333333333333333  8 3 0.3333333333333333  8.5 3 0.3333333333333333  9 3 0.3333333333333333  9.5 3 0.3333333333333333  10 3 0.3333333333333333  0 0 0.5  0.5 0 0.5  1 0 0.5  1.5 0 0.5  2 0 0.5  2.5 0 0.5  3 0 0.5  3.5 0 0.5  4 0 0.5  4.5 0 0.5  5 0 0.5  5.5 0 0.5  6 0 0.5  6.5 0 0.5  7 0 0.5  7.5 0 0.5  8 0 0.5  8.5 0 0.5  9 0 0.5  9.5 0 0.5  10 0 0.5  0 0.5 0.5  0.5 0.5 0.5  1 0.5 0.5  1.5 0.5 0.5  2 0.5 0.5  2.5 0.5 0.5  3 0.5 0.5  3.5 0.5 0.5  4 0.5 0.5  4.5 0.5 0.5  5 0.5 0.5  5.5 0.5 0.5  6 0.5 0.5  6.5 0.5 0.5  7 0.5 0.5  7.5 0.5 0.5  8 0.5 0.5  8.5 0.5 0.5  9 0.5 0.5  9.5 0.5 0.5  10 0.5 0.5  0 1 0.5  0.5 1 0.5  1 1 0.5  1.5 1 0.5  2 1 0.5  2.5 1 0.5  3 1 0.5  3.5 1 0.5  4 1 0.5  4.5 1 0.5  5 1 0.5  5.5 1 0.5  6 1 0.5  6.5 1 0.5  7 1 0.5  7.5 1 0.5  8 1 0.5  8.5 1 0.5  9 1 0.5  9.5 1 0.5  10 1 0.5  0 1.5 0.5  0.5 1.5 0.5  1 1.5 0.5  1.5 1.5 0.5  2 1.5 0.5  2.5 1.5 0.5  3 1.5 0.5  3.5 1.5 0.5  4 1.5 0.5  4.5 1.5 0.5  5 1.5 0.5  5.5 1.5 0.5  6 1.5 0.5  6.5 1.5 0.5  7 1.5 0.5  7.5 1.5 0.5  8 1.5 0.5  8.
[...]
<PointData  Vectors="f_7-0"> 
<DataArray  type="Float64"  Name="f_7-0"  NumberOfComponents="3" format="ascii">0.0000000000000000e+00 0.0000000000000000e+00 0.0000000000000000e+00  6.9900028985464102e-01 5.3336418667530305e-01 9.5585972122073176e-02  1.7179387774889729e+00 5.7939832608726516e-01 9.6660611173289113e-02  2.7546855379384581e+00 5.8139373822074936e-01 9.7253704300306304e-02  3.7963167681606076e+00 5.8128381667339091e-01 9.7363369041042896e-02  4.8399098557951916e+00 5.8119330782261325e-01 9.7399153297398400e-02  5.8838891799141573e+00 5.8115449814755726e-01 9.7407645086061423e-02  6.9279234697247860e+00 5.8113690065941737e-01 9.7408685631840991e-02  7.9719550931450298e+00 5.8112823817505721e-01 9.7408590496179823e-02  9.0159759941916775e+00 5.8112381233469201e-01 9.7408318181465531e-02  1.0059988217543351e+01 5.8112149592887874e-01 9.7408090416063325e-02  1.1103994948520741e+01 5.8112026205583800e-01 9.7407945022836145e-02  1.2147998494668325e+01 5.8111959875273245e-01 9.7407860084585310e-02  1.3192000255580620e+01 5.8111924074232413e-01 9.7407811979470432e-02  1.4236001031666902e+01 5.8111904709776274e-01 9.7407785224225524e-02  1.5280001269149349e+01 5.8111894227821748e-01 9.7407770516617087e-02  1.6324001213621337e+01 5.8111888561615976e-01 9.7407762494938349e-02  1.7368000999615987e+01 5.8111885518992135e-01 9.7407758164515745e-02  1.8412000701091166e+01 5.8111883924276342e-01 9.7407755887054970e-02  1.9456000359530027e+01 5.8111883163107592e-01 9.7407754799745672e-02  2.0500000000000007e+01 5.8111882938860393e-01 9.7407754462378857e-02  0.0000000000000000e+00 0.0000000000000000e+00 0.0000000000000000e+00  6.8332118014191368e-01 3.4805216786576676e-01 9.8600344169160900e-02  1.7108420396243607e+00 3.8677881855689494e-01 9.7529114889802204e-02  2.7529439538404703e+00 3.8797032960217093e-01 9.7692554644869894e-02  3.7959010224030418e+00 3.8770484367960528e-01 9.7715531792708921e-02  4.8398322345095401e+00 3.8758574347909863e-01 9.7718618824104889e-02  5.8838819744343018e+00 3.8754111721951601e-01 9.7720726222385326e-02  6.9279283890783496e+00 3.8752370902584804e-01 9.7720587168470124e-02  7.9719604059112577e+00 3.8751617141959910e-01 9.7720044472949449e-02  9.0159796272735448e+00 3.8751259895965018e-01 9.7719664848764709e-02  1.0059990388373985e+01 3.8751080928634818e-01 9.7719438444456366e-02  1.1103996180990443e+01 3.8750988018071764e-01 9.7719307617073425e-02  1.2147999178807671e+01 3.8750938769163062e-01 9.7719233968902114e-02  1.3192000631040278e+01 3.8750912379896807e-01 9.7719193304435487e-02  1.4236001236472134e+01 3.8750898159534619e-01 9.7719171042340264e-02  1.5280001380424549e+01 3.8750890477270328e-01 9.7719158905335113e-02  1.6324001273764861e+01 3.8750886328772760e-01 9.7719152317399166e-02  1.7368001031677462e+01 3.8750884102268202e-01 9.7719148772343431e-02  1.8412000717394395e+01 3.8750882935703923e-01 9.7719146911965482e-02  1.9456000366356349e+01 3.8750882378615964e-01 9.7719146029833809e-02  2.0500000000000007e+01 3.8750882215374388e-01 9.7719145772205626e-02  0.0000000000000000e+00 0.0000000000000000e+00 0.0000000000000000e+00  6.7185076214865180e-01 1.7189269641386945e-01 1.0112763957429305e-01  1.6996582949263184e+00 1.9367688189137436e-01 9.8374869986266142e-02  2.7498756344512398e+00 1.9429667051124605e-01 9.8157070347236655e-02  3.7951554377380758e+00 1.9405125521605165e-01 9.8064035218796683e-02  4.8396945815748023e+00 1.9395768874680769e-01 9.8041317786687066e-02  5.8838766678023546e+00 1.9392310394711629e-01 9.8034755702872331e-02  6.9279445363437304e+00 1.9390986324151946e-01 9.8032262065371994e-02  7.9719747996024806e+00 1.9390421899887539e-01 9.8031302855469030e-02  9.0159889714766610e+00 1.9390157535512104e-01 9.8030903324337129e-02  1.0059995870937874e+01 1.9390026319056350e-01 9.8030722235280449e-02  1.1103999270865575e+01 1.9389958512508537e-01 9.8030633035004214e-02  1.2148000887677831e+01 1.9389922664580178e-01 9.8030587316633583e-02  1.3192001567069076e+01 1.9389903480975682e-01 9.8030563439021015e-02  1.4236001746567783e+01 1.9389893149954612e-01 9.8030550765265179e-02  1.5280001657441968e+01 1.9389887570606879e-01 9.8030543975823600e-02  1.6324001423456949e+01 1.9389884558146167e-01 9.8030540329556881e-02  1.7368001111469358e+01 1.9389882941426598e-01 9.8030538380765225e-02  1.8412000757974152e+01 1.9389882094356442e-01 9.8030537363544099e-02  1.9456000383344513e+01 1.9389881689586047e-01 9.8030536892031186e-02  2.0500000000000007e+01 1.9389881570132556e-01 9.8030536751417971e-02  0.0000000000000000e+00 0.0000000000000000e+00 0.0000000000000000e+00  6.6835785888759669e-01 1.2271771212054284e-03 1.0193399044605558e-01  1.6946555294002261e+00 4.6647265788611050e-04 9.8830872105712050e-02  2.7488053326719273e+00 3.7718411140673272e-04 9.8514026571599800e-02  3.7950106008555942e+00 3.2635984750306569e-04 9.8384992177579650e-02  4.8397211743279733e+00 3.1381276305764768e-04 9.8353795491499432e-02  5.8839288904960751e+00 3.0265359430547344e-04 9.8345679793939378e-02  6.9279833064991809e+00 2.9629069215507192e-04 9.8342953536475153e-02  7.9719988176440211e+00 2.9290143010197485e-04 9.8342210157759152e-02  9.0160027845994115e+00 2.9103322507876151e-04 9.8342006332795981e-02  1.0060003581421665e+01 2.9001572856380393e-04 9.8341947693092693e-02  1.1104003516845212e+01 2.8946254020875516e-04 9.8341931216751360e-02  1.2148003208682988e+01 2.8916209458092478e-04 9.8341927379162447e-02  1.3192002830896822e+01 2.8899900391624148e-04 9.8341926819654230e-02  1.4236002433281515e+01 2.8891050440151879e-04 9.8341926955809567e-02  1.5280002029824876e+01 2.8886251890700517e-04 9.8341927169730045e-02  1.6324001624531533e+01 2.8883655534345975e-04 9.8341927332073004e-02  1.7368001218614062e+01 2.8882260498430939e-04 9.8341927435429785e-02  1.8412000812460057e+01 2.8881529005480157e-04 9.8341927497230322e-02  1.9456000406178958e+01 2.8881178811839524e-04 9.8341927541829480e-02  2.0500000000000007e+01 2.8881074929282881e-04 9.8341927550808728e-02  0.0000000000000000e+00 0.0000000000000000e+00 0.0000000000000000e+00  6.7357486683634549e-01 -1.6918950498229657e-01 1.0140497063200243e-01  1.6996215304413951e+00 -1.9278945005177803e-01 9.8993404325831619e-02  2.7509756427183194e+00 -1.9354730701101322e-01 9.8709436525142288e-02  3.7957985665745335e+00 -1.9336467307055538e-01 9.8659611080037124e-02  4.8400131288333661e+00 -1.9331967734048811e-01 9.8653436313429627e-02  5.8840577680351300e+00 -1.9331350406746553e-01 9.8652987577546508e-02  6.9280430171992080e+00 -1.9331471396452984e-01 9.8652565270066023e-02  7.9720286233901048e+00 -1.9331705017247319e-01 9.8652814819359169e-02  9.0160182065822596e+00 -1.9331878029780519e-01 9.8653023363680453e-02  1.0060011741767356e+01 -1.9331983818275075e-01 9.8653147965830371e-02  1.1104007890326672e+01 -1.9332044690321865e-01 9.8653222951155944e-02  1.2148005565790616e+01 -1.9332078691402557e-01 9.8653266086743283e-02  1.3192004105240203e+01 -1.9332097415273852e-01 9.8653290077582056e-02  1.4236003123220518e+01 -1.9332107649476546e-01 9.8653303272191739e-02  1.5280002403264820e+01 -1.9332113219623506e-01 9.8653310494954585e-02  1.6324001825987523e+01 -1.9332116239616401e-01 9.8653314426156283e-02  1.7368001325913937e+01 -1.9332117864072929e-01 9.8653316546712541e-02  1.8412000867018360e+01 -1.9332118716538779e-01 9.8653317663566747e-02  1.9456000429052935e+01 -1.9332119125009495e-01 9.8653318209480131e-02  2.0500000000000007e+01 -1.9332119246476492e-01 9.8653318364901918e-02  0.0000000000000000e+00 0.0000000000000000e+00 0.0000000000000000e+00  6.9149744791359791e-01 -3.4702375976300853e-01 1.0035674866119128e-01  1.7113899097626433e+00 -3.8572117912403348e-01 9.8595963958199251e-02  2.7548472822219545e+00 -3.8707679206824991e-01 9.8761618605859691e-02  3.7970446809596199e+00 -3.8695779082502968e-01 9.8934226651343188e-02  4.8404076118773700e+00 -3.8692585796156803e-01 9.8950656584485583e-02  5.8842002777999003e+00 -3.8691811891504557e-01 9.8958484702189847e-02  6.9281012416498520e+00 -3.8692161576925305e-01 9.8962063735543393e-02  7.9720546225864419e+00 -3.8692534384974603e-01 9.8963452215599684e-02  9.0160307374035806e+00 -3.8692782116622015e-01 9.8964078758142546e-02  1.0060018122405962e+01 -3.8692931356576166e-01 9.8964380253743239e-02  1.1104011235736550e+01 -3.8693016197994878e-01 9.8964535807543066e-02  1.2148007347685528e+01 -3.8693063360501162e-01 9.8964617230064694e-02  1.3192005062869574e+01 -3.8693089265935154e-01 9.8964660368396323e-02  1.4236003640095804e+01 -3.8693103406802859e-01 9.8964683515729235e-02  1.5280002682585645e+01 -3.8693111099037797e-01 9.8964695991313870e-02  1.6324001976548765e+01 -3.8693115268298611e-01 9.8964702715005792e-02  1.7368001406076456e+01 -3.8693117510558905e-01 9.8964706319804488e-02  1.8412000907774534e+01 -3.8693118687129735e-01 9.8964708208430729e-02  1.9456000446145516e+01 -3.8693119251038061e-01 9.8964709121328071e-02  2.0500000000000007e+01 -3.8693119418383715e-01 9.8964709388503477e-02  0.0000000000000000e+00 0.0000000000000000e+00 0.0000000000000000e+00  7.1967873750919686e-01 -5.3193325417930459e-01 9.3634352111751307e-02  1.7180195790964727e+00 -5.7744124534578767e-01 9.7348954204365928e-02  2.7570365041567930e+00 -5.8039374286581857e-01 9.9234864520403726e-02  3.7977250602760999e+00 -5.8049565587087926e-01 9.9238362636190180e-02  4.8405790755811582e+00 -5.8049664009235147e-01 9.9241792099999199e-02  5.8842641220466243e+00 -5.8051433820627907e-01 9.9267872061375592e-02  6.9281275388534453e+00 -5.8052596636475429e-01 9.9272549531894252e-02  7.9720655942032126e+00 -5.8053249196750023e-01 9.9274408602385400e-02  9.0160359365785165e+00 -5.8053639705288851e-01 9.9275290924979540e-02  1.0060020738894558e+01 -5.8053857339155368e-01 9.9275691798084209e-02  1.1104012595716016e+01 -5.8053977010648494e-01 9.9275889795457914e-02  1.2148008068862831e+01 -5.8054042513272330e-01 9.9275989757411753e-02  1.3192005449522020e+01 -5.8054078200081871e-01 9.9276042128443390e-02  1.4236003848556066e+01 -5.8054097604487509e-01 9.9276069971075395e-02  1.5280002795170596e+01 -5.8054108137467808e-01 9.9276084852871316e-02  1.6324002037215124e+01 -5.8054113840099664e-01 9.9276092837508864e-02  1.7368001438372353e+01 -5.8054116905330788e-01 9.9276097107990569e-02  1.8412000924193396e+01 -5.8054118513301267e-01 9.9276099341769564e-02  1.9456000453025130e+01 -5.8054119284336880e-01 9.9276100408353232e-02  2.0500000000000007e+01 -5.8054119509986857e-01 9.9276100741665901e-02  0.0000000000000000e+00 0.0000000000000000e+00 0.0000000000000000e+00  7.0004178073433510e-01 5.3131187688672843e-01 3.2278521741906201e-02  1.7180351037070540e+00 5.7914173883577658e-01 3.2534010189240875e-02  2.7546855200762246e+00 5.8128059881325478e-01 3.2808600303260063e-02  3.7963183315077269e+00 5.8116929099114445e-01 3.2842860664557015e-02  4.8399094167764565e+00 5.8108709421887850e-01 3.2864320723759832e-02  5.8838892863983219e+00 5.8105030192418450e-01 3.2870277162783547e-02  6.9279235393685754e+00 5.8103296628628565e-01 3.2871064499447565e-02  7.9719551007059630e+00 5.8102440831966640e-01 3.2871239538718094e-02  9.0159759969324043e+00 5.8102001720815244e-01 3.2871238398437065e-02  1.0059988220121685e+01 5.8101770503947647e-01 3.2871187835026308e-02  1.1103994949931247e+01 5.8101646965073706e-01 3.2871146441275416e-02  1.2147998495405306e+01 5.8101580467075931e-01 3.2871120294943136e-02  1.3192000255993911e+01 5.8101544541687300e-01 3.2871104761326951e-02  1.4236001031898519e+01 5.8101525097361018e-01 3.2871095853375117e-02  1.5280001269276280e+01 5.8101514568313628e-01 3.2871090869943477e-02  1.6324001213689204e+01 5.8101508875421037e-01 3.2871088122912104e-02  1.7368000999650064e+01 5.8101505818028554e-01 3.2871086629630800e-02  1.8412000701103011e+01 5.8101504215512711e-01 3.2871085841118773e-02  1.9456000359526215e+01 5.8101503450461234e-01 3.2871085462297951e-02  2.0500000000000007e+01 5.8101503223903250e-01 3.2871085338382483e-02  0.0000000000000000e+00 0.0000000000000000e+00 0.0000000000000000e+00  6.8472391966026735e-01 3.4748829260416780e-01 3.3786918676313241e-02  1.7112490132481148e+00 3.8645196363408696e-01 3.3048541319647441e-02  2.7529151336108586e+00 3.8782891217019433e-01 3.3161162866807467e-02  3.7958964629189653e+00 3.8758855858058650e-01 3.3183810434000725e-02  4.8398340768961221e+00 3.8747910309560102e-01 3.3181923095852842e-02  5.8838823002624450e+00 3.8743676794441961e-01 3.3182804124109407e-02  6.9279284271899622e+00 3.8741977900176577e-01 3.3182913903087127e-02  7.9719604156365271e+00 3.8741236318444539e-01 3.3182761594060521e-02  9.0159796347241539e+00 3.8740881870599303e-01 3.3182644376765491e-02  1.0059990391739284e+01 3.8740702753089873e-01 3.3182572898108401e-02  1.1103996182378097e+01 3.8740609312138596e-01 3.3182530628512244e-02  1.2147999179515024e+01 3.8740559660024632e-01 3.3182506366489034e-02  1.3192000631426559e+01 3.8740533011483863e-01 3.3182492822329927e-02  1.4236001236680146e+01 3.8740518636764842e-01 3.3182485358836673e-02  1.5280001380536241e+01 3.8740510866630351e-01 3.3182481271072595e-02  1.6324001273824337e+01 3.8740506669255914e-01 3.3182479045256771e-02  1.7368001031707529e+01 3.8740504416055060e-01 3.3182477845067657e-02  1.8412000717406105e+01 3.8740503235355317e-01 3.3182477214633382e-02  1.9456000366355010e+01 3.8740502671420302e-01 3.3182476915945412e-02  2.0500000000000007e+01 3.8740502505591401e-01 3.3182476828264133e-02  0.0000000000000000e+00 0.0000000000000000e+00 0.0000000000000000e+00  6.7355281182476678e-01 1.7153005158445050e-01 3.4565271921349186e-02  1.7000303968201040e+00 1.9343373562597471e-01 3.3658830253357981e-02  2.7498783699221496e+00 1.9415923469808880e-01 3.3549320013955324e-02  3.7951461029980504e+00 1.9394190897767463e-01 3.3509982408550215e-02  4.8396984337874898e+00 1.9385249422858022e-01 3.3499093248455153e-02  5.8838767059940347e+00 1.9381899573647859e-01 3.3495677627643335e-02  6.9279445138951701e+00 1.9380606603262424e-01 3.3494590848739680e-02  7.9719748165003343e+00 1.9380048185314380e-01 3.3494179253348647e-02  9.0159889766930466e+00 1.9379782585952279e-01 3.3494008089015412e-02  1.0059995870913056e+01 1.9379649604205978e-01 3.3493935657581658e-02  1.1103999270426501e+01 1.9379580564940307e-01 3.3493902212241786e-02  1.2148000887430312e+01 1.9379543951200606e-01 3.3493885670106582e-02  1.3192001566910900e+01 1.9379524320714583e-01 3.3493877275146987e-02  1.4236001746470492e+01 1.9379513738156609e-01 3.3493872918772552e-02  1.5280001657386867e+01 1.9379508019632083e-01 3.3493870618648530e-02  1.6324001423426296e+01 1.9379504930945746e-01 3.3493869394827118e-02  1.7368001111451989e+01 1.9379503272985063e-01 3.3493868744782891e-02  1.8412000757963337e+01 1.9379502404212465e-01 3.3493868407338902e-02  1.9456000383336583e+01 1.9379501989056466e-01 3.3493868251455401e-02  2.0500000000000007e+01 1.9379501866573556e-01 3.3493868204124352e-02  0.0000000000000000e+00 0.0000000000000000e+00 0.0000000000000000e+00  6.7012256803640691e-01 1.1712073497320238e-03 3.4888631890647295e-02  1.6949073645349035e+00 3.2134292138277743e-04 3.4064946376427881e-02  2.7488782449445512e+00 2.8172910154324889e-04 3.3890548988497027e-02  3.7949879869255803e+00 2.2849119933970887e-04 3.3819966058762439e-02  4.8397245963559454e+00 2.1101069553294575e-04 3.3811055271748366e-02  5.8839286368810217e+00 1.9932119068293954e-04 3.3807107798825939e-02  6.9279832084913489e+00 1.9278333388659106e-04 3.3805782445775208e-02  7.9719988260712213e+00 1.8925307553615341e-04 3.3805423979854025e-02  9.0160027780169241e+00 1.8731171317852287e-04 3.3805309430822210e-02  1.0060003576314100e+01 1.8625898861913213e-04 3.3805274100922288e-02  1.1104003514432046e+01 1.8568724142027944e-04 3.3805263311844372e-02  1.2148003207411159e+01 1.8537672181277308e-04 3.3805260227341843e-02  1.3192002830178550e+01 1.8520819902112149e-04 3.3805259471427596e-02  1.4236002432887242e+01 1.8511677240220514e-04 3.3805259354194275e-02  1.5280002029611488e+01 1.8506720360300937e-04 3.3805259388362388e-02  1.6324001624416223e+01 1.8504038418916527e-04 3.3805259440686318e-02  1.7368001218552546e+01 1.8502597454154939e-04 3.3805259480601639e-02  1.8412000812428786e+01 1.8501841912223435e-04 3.3805259506707756e-02  1.9456000406166144e+01 1.8501480329833619e-04 3.3805259523796788e-02  2.0500000000000007e+01 1.8501373374310321e-04 3.3805259526693443e-02  0.0000000000000000e+00 0.0000000000000000e+00 0.0000000000000000e+00  6.7530775723382852e-01 -1.6915145525293848e-01 3.4999346074855990e-02  1.6998533600809664e+00 -1.9279075939510054e-01 3.4347851427517909e-02  2.7510605532572088e+00 -1.9359727675513819e-01 3.4139703904143719e-02  3.7957648938781885e+00 -1.9345966689069727e-01 3.4113528429434506e-02  4.8400163336449724e+00 -1.9342059258944072e-01 3.4117977965036898e-02  5.8840574231468779e+00 -1.9341590930098868e-01 3.4116799826548597e-02  6.9280428073389686e+00 -1.9341805134830858e-01 3.4116455476308219e-02  7.9720286214535010e+00 -1.9342066117001455e-01 3.4116519491091776e-02  9.0160181857758968e+00 -1.9342249269171286e-01 3.4116564389209410e-02  1.0060011733011230e+01 -1.9342359462165551e-01 3.4116598396754370e-02  1.1104007886487379e+01 -1.9342422353724820e-01 3.4116620538476944e-02  1.2148005563703546e+01 -1.9342457348353062e-01 3.4116633914466982e-02  1.3192004104113231e+01 -1.9342476573845541e-01 3.4116641579750306e-02  1.4236003122619660e+01 -1.9342487069318837e-01 3.4116645868841514e-02  1.5280002402942580e+01 -1.9342492777997020e-01 3.4116648245380354e-02  1.6324001825814523e+01 -1.9342495871848875e-01 3.4116649549217615e-02  1.7368001325822863e+01 -1.9342497535610392e-01 3.4116650256004022e-02  1.8412000866974051e+01 -1.9342498408534062e-01 3.4116650629703281e-02  1.9456000429037847e+01 -1.9342498826689933e-01 3.4116650811504765e-02  2.0500000000000007e+01 -1.9342498950680190e-01 3.4116650862525848e-02  0.0000000000000000e+00 0.0000000000000000e+00 0.0000000000000000e+00  6.9354769921841963e-01 -3.4634038406385825e-01 3.5201618343358484e-02  1.7115054015374698e+00 -3.8555178840094934e-01 3.4293704369727319e-02  2.7549406231772275e+00 -3.8716374719126079e-01 3.4332381032845319e-02  3.7970153013376349e+00 -3.8705542813828603e-01 3.4416760002771440e-02  4.8404069401714507e+00 -3.8702496062848180e-01 3.4422462512338430e-02  5.8842004327000366e+00 -3.8702103501444740e-01 3.4425684974753436e-02  6.9281010629561415e+00 -3.8702506595202246e-01 3.4427090657325000e-02  7.9720545873794757e+00 -3.8702899130048657e-01 3.4427594275963300e-02  9.0160307137943256e+00 -3.8703155884092960e-01 3.4427824590608141e-02  1.0060018113519623e+01 -3.8703308327232494e-01 3.4427930633928634e-02  1.1104011231504250e+01 -3.8703394609697450e-01 3.4427984171138647e-02  1.2148007345370409e+01 -3.8703442426483042e-01 3.4428011724472886e-02  1.3192005061656914e+01 -3.8703468647689782e-01 3.4428026116253681e-02  1.4236003639459931e+01 -3.8703482949118084e-01 3.4428033781725806e-02  1.5280002682245408e+01 -3.8703490724378625e-01 3.4428037890977758e-02  1.6324001976366951e+01 -3.8703494937210481e-01 3.4428040097030252e-02  1.7368001405981918e+01 -3.8703497202459208e-01 3.4428041276872788e-02  1.8412000907730505e+01 -3.8703498390937785e-01 3.4428041893879220e-02  1.9456000446132840e+01 -3.8703498960374771e-01 3.4428042191430454e-02  2.0500000000000007e+01 -3.8703499129152702e-01 3.4428042280708594e-02  0.0000000000000000e+00 0.0000000000000000e+00 0.0000000000000000e+00  7.1784564602283074e-01 -5.3078354694076324e-01 3.2405790222018234e-02  1.7185722033680881e+00 -5.7706898389403238e-01 3.3912094074840644e-02  2.7571411578353602e+00 -5.8062351238276189e-01 3.4795728356253823e-02  3.7976605678527209e+00 -5.8058345924279420e-01 3.4711711982540361e-02  4.8405792891541521e+00 -5.8059412617167616e-01 3.4724605862072808e-02  5.8842659068941341e+00 -5.8061853485561810e-01 3.4736950086444507e-02  6.9281270500154388e+00 -5.8062941008000812e-01 3.4737859953141506e-02  7.9720655358783707e+00 -5.8063619185379245e-01 3.4738789534586895e-02  9.0160359205276155e+00 -5.8064015335111707