<?xml version="1.0"?>
<VTKFile type="UnstructuredGrid"  version="0.1"  >
<UnstructuredGrid>
<Piece  NumberOfPoints="588" NumberOfCells="2160">
<Points>
<DataArray  type="Float64"  NumberOfComponents="3"  format="ascii">0 0 0  0.5 0 0  1 0 0  1.5 0 0  2 0 0  2.5 0 0  3 0 0  3.5 0 0  4 0 0  4.5 0 0  5 0 0  5.5 0 0  6 0 0  6.5 0 0  7 0 0  7.5 0 0  8 0 0  8.5 0 0  9 0 0  9.5 0 0  10 0 0  0 0.5 0  0.5 0.5 0  1 0.5 0  1.5 0.5 0  2 0.5 0  2.5 0.5 0  3 0.5 0  3.5 0.5 0  4 0.5 0  4.5 0.5 0  5 0.5 0  5.5 0.5 0  6 0.5 0  6.5 0.5 0  7 0.5 0  7.5 0.5 0  8 0.5 0  8.5 0.5 0  9 0.5 0  9.5 0.5 0  10 0.5 0  0 1 0  0.5 1 0  1 1 0  1.5 1 0  2 1 0  2.5 1 0  3 1 0  3.5 1 0  4 1 0  4.5 1 0  5 1 0  5.5 1 0  6 1 0  6.5 1 0  7 1 0  7.5 1 0  8 1 0  8.5 1 0  9 1 0  9.5 1 0  10 1 0  0 1.5 0  0.5 1.5 0  1 1.5 0  1.5 1.5 0  2 1.5 0  2.5 1.5 0  3 1.5 0  3.5 1.5 0  4 1.5 0  4.5 1.5 0  5 1.5 0  5.5 1.5 0  6 1.5 0  6.5 1.5 0  7 1.5 0  7.5 1.5 0  8 1.5 0  8.5 1.5 0  9 1.5 0  9.5 1.5 0  10 1.5 0  0 2 0  0.5 2 0  1 2 0  1.5 2 0  2 2 0  2.5 2 0  3 2 0  3.5 2 0  4 2 0  4.5 2 0  5 2 0  5.5 2 0  6 2 0  6.5 2 0  7 2 0  7.5 2 0  8 2 0  8.5 2 0  9 2 0  9.5 2 0  10 2 0  0 2.5 0  0.5 2.5 0  1 2.5 0  1.5 2.5 0  2 2.5 0  2.5 2.5 0  3 2.5 0  3.5 2.5 0  4 2.5 0  4.5 2.5 0  5 2.5 0  5.5 2.5 0  6 2.5 0  6.5 2.5 0  7 2.5 0  7.5 2.5 0  8 2.5 0  8.5 2.5 0  9 2.5 0  9.5 2.5 0  10 2.5 0  0 3 0  0.5 3 0  1 3 0  1.5 3 0  2 3 0  2.5 3 0  3 3 0  3.5 3 0  4 3 0  4.5 3 0  5 3 0  5.5 3 0  6 3 0  6.5 3 0  7 3 0  7.5 3 0  8 3 0  8.5 3 0  9 3 0  9.5 3 0  10 3 0  0 0 0.1666666666666667  0.5 0 0.1666666666666667  1 0 0.1666666666666667  1.5 0 0.1666666666666667  2 0 0.1666666666666667  2.5 0 0.1666666666666667  3 0 0.1666666666666667  3.5 0 0.1666666666666667  4 0 0.1666666666666667  4.5 0 0.1666666666666667  5 0 0.1666666666666667  5.5 0 0.1666666666666667  6 0 0.1666666666666667  6.5 0 0.1666666666666667  7 0 0.1666666666666667  7.5 0 0.1666666666666667  8 0 0.1666666666666667  8.5 0 0.1666666666666667  9 0 0.1666666666666667  9.5 0 0.1666666666666667  10 0 0.1666666666666667  0 0.5 0.1666666666666667  0.5 0.5 0.1666666666666667  1 0.5 0.1666666666666667  1.5 0.5 0.1666666666666667  2 0.5 0.1666666666666667  2.5 0.5 0.1666666666666667  3 0.5 0.1666666666666667  3.5 0.5 0.1666666666666667  4 0.5 0.1666666666666667  4.5 0.5 0.1666666666666667  5 0.5 0.1666666666666667  5.5 0.5 0.1666666666666667  6 0.5 0.1666666666666667  6.5 0.5 0.1666666666666667  7 0.5 0.1666666666666667  7.5 0.5 0.1666666666666667  8 0.5 0.1666666666666667  8.5 0.5 0.1666666666666667  9 0.5 0.1666666666666667  9.5 0.5 0.1666666666666667  10 0.5 0.1666666666666667  0 1 0.1666666666666667  0.5 1 0.1666666666666667  1 1 0.1666666666666667  1.5 1 0.1666666666666667  2 1 0.1666666666666667  2.5 1 0.1666666666666667  3 1 0.1666666666666667  3.5 1 0.1666666666666667  4 1 0.1666666666666667  4.5 1 0.1666666666666667  5 1 0.1666666666666667  5.5 1 0.1666666666666667  6 1 0.1666666666666667  6.5 1 0.1666666666666667  7 1 0.1666666666666667  7.5 1 0.1666666666666667  8 1 0.1666666666666667  8.5 1 0.1666666666666667  9 1 0.1666666666666667  9.5 1 0.1666666666666667  10 1 0.1666666666666667  0 1.5 0.1666666666666667  0.5 1.5 0.1666666666666667  1 1.5 0.1666666666666667  1.5 1.5 0.1666666666666667  2 1.5 0.1666666666666667  2.5 1.5 0.1666666666666667  3 1.5 0.1666666666666667  3.5 1.5 0.1666666666666667  4 1.5 0.1666666666666667  4.5 1.5 0.1666666666666667  5 1.5 0.1666666666666667  5.5 1.5 0.1666666666666667  6 1.5 0.1666666666666667  6.5 1.5 0.1666666666666667  7 1.5 0.1666666666666667  7.5 1.5 0.1666666666666667  8 1.5 0.1666666666666667  8.5 1.5 0.1666666666666667  9 1.5 0.1666666666666667  9.5 1.5 0.1666666666666667  10 1.5 0.1666666666666667  0 2 0.1666666666666667  0.5 2 0.1666666666666667  1 2 0.1666666666666667  1.5 2 0.1666666666666667  2 2 0.1666666666666667  2.5 2 0.1666666666666667  3 2 0.1666666666666667  3.5 2 0.1666666666666667  4 2 0.1666666666666667  4.5 2 0.1666666666666667  5 2 0.1666666666666667  5.5 2 0.1666666666666667  6 2 0.1666666666666667  6.5 2 0.1666666666666667  7 2 0.1666666666666667  7.5 2 0.1666666666666667  8 2 0.1666666666666667  8.5 2 0.1666666666666667  9 2 0.1666666666666667  9.5 2 0.1666666666666667  10 2 0.1666666666666667  0 2.5 0.1666666666666667  0.5 2.5 0.1666666666666667  1 2.5 0.1666666666666667  1.5 2.5 0.1666666666666667  2 2.5 0.1666666666666667  2.5 2.5 0.1666666666666667  3 2.5 0.1666666666666667  3.5 2.5 0.1666666666666667  4 2.5 0.1666666666666667  4.5 2.5 0.1666666666666667  5 2.5 0.1666666666666667  5.5 2.5 0.1666666666666667  6 2.5 0.1666666666666667  6.5 2.5 0.1666666666666667  7 2.5 0.1666666666666667  7.5 2.5 0.1666666666666667  8 2.5 0.1666666666666667  8.5 2.5 0.1666666666666667  9 2.5 0.1666666666666667  9.5 2.5 0.1666666666666667  10 2.5 0.1666666666666667  0 3 0.1666666666666667  0.5 3 0.1666666666666667  1 3 0.1666666666666667  1.5 3 0.1666666666666667  2 3 0.1666666666666667  2.5 3 0.1666666666666667  3 3 0.1666666666666667  3.5 3 0.1666666666666667  4 3 0.1666666666666667  4.5 3 0.1666666666666667  5 3 0.1666666666666667  5.5 3 0.1666666666666667  6 3 0.1666666666666667  6.5 3 0.1666666666666667  7 3 0.1666666666666667  7.5 3 0.1666666666666667  8 3 0.1666666666666667  8.5 3 0.1666666666666667  9 3 0.1666666666666667  9.5 3 0.1666666666666667  10 3 0.1666666666666667  0 0 0.3333333333333333  0.5 0 0.3333333333333333  1 0 0.3333333333333333  1.5 0 0.3333333333333333  2 0 0.3333333333333333  2.5 0 0.3333333333333333  3 0 0.3333333333333333  3.5 0 0.3333333333333333  4 0 0.3333333333333333  4.5 0 0.3333333333333333  5 0 0.3333333333333333  5.5 0 0.3333333333333333  6 0 0.3333333333333333  6.5 0 0.3333333333333333  7 0 0.3333333333333333  7.5 0 0.3333333333333333  8 0 0.3333333333333333  8.5 0 0.3333333333333333  9 0 0.3333333333333333  9.5 0 0.3333333333333333  10 0 0.3333333333333333  0 0.5 0.3333333333333333  0.5 0.5 0.3333333333333333  1 0.5 0.3333333333333333  1.5 0.5 0.3333333333333333  2 0.5 0.3333333333333333  2.5 0.5 0.3333333333333333  3 0.5 0.3333333333333333  3.5 0.5 0.3333333333333333  4 0.5 0.3333333333333333  4.5 0.5 0.3333333333333333  5 0.5 0.3333333333333333  5.5 0.5 0.3333333333333333  6 0.5 0.3333333333333333  6.5 0.5 0.3333333333333333  7 0.5 0.3333333333333333  7.5 0.5 0.3333333333333333  8 0.5 0.3333333333333333  8.5 0.5 0.3333333333333333  9 0.5 0.3333333333333333  9.5 0.5 0.3333333333333333  10 0.5 0.3333333333333333  0 1 0.3333333333333333  0.5 1 0.3333333333333333  1 1 0.3333333333333333  1.5 1 0.3333333333333333  2 1 0.3333333333333333  2.5 1 0.3333333333333333  3 1 0.3333333333333333  3.5 1 0.3333333333333333  4 1 0.3333333333333333  4.5 1 0.3333333333333333  5 1 0.3333333333333333  5.5 1 0.3333333333333333  6 1 0.3333333333333333  6.5 1 0.3333333333333333  7 1 0.3333333333333333  7.5 1 0.3333333333333333  8 1 0.3333333333333333  8.5 1 0.3333333333333333  9 1 0.3333333333333333  9.5 1 0.3333333333333333  10 1 0.3333333333333333  0 1.5 0.3333333333333333  0.5 1.5 0.3333333333333333  1 1.5 0.3333333333333333  1.5 1.5 0.3333333333333333  2 1.5 0.3333333333333333  2.5 1.5 0.3333333333333333  3 1.5 0.3333333333333333  3.5 1.5 0.3333333333333333  4 1.5 0.3333333333333333  4.5 1.5 0.3333333333333333  5 1.5 0.3333333333333333  5.5 1.5 0.3333333333333333  6 1.5 0.3333333333333333  6.5 1.5 0.3333333333333333  7 1.5 0.3333333333333333  7.5 1.5 0.3333333333333333  8 1.5 0.3333333333333333  8.5 1.5 0.3333333333333333  9 1.5 0.3333333333333333  9.5 1.5 0.3333333333333333  10 1.5 0.3333333333333333  0 2 0.3333333333333333  0.5 2 0.3333333333333333  1 2 0.3333333333333333  1.5 2 0.3333333333333333  2 2 0.3333333333333333  2.5 2 0.3333333333333333  3 2 0.3333333333333333  3.5 2 0.3333333333333333  4 2 0.3333333333333333  4.5 2 0.3333333333333333  5 2 0.3333333333333333  5.5 2 0.3333333333333333  6 2 0.3333333333333333  6.5 2 0.3333333333333333  7 2 0.3333333333333333  7.5 2 0.3333333333333333  8 2 0.3333333333333333  8.5 2 0.3333333333333333  9 2 0.3333333333333333  9.5 2 0.3333333333333333  10 2 0.3333333333333333  0 2.5 0.3333333333333333  0.5 2.5 0.3333333333333333  1 2.5 0.3333333333333333  1.5 2.5 0.3333333333333333  2 2.5 0.3333333333333333  2.5 2.5 0.3333333333333333  3 2.5 0.3333333333333333  3.5 2.5 0.3333333333333333  4 2.5 0.3333333333333333  4.5 2.5 0.3333333333333333  5 2.5 0.3333333333333333  5.5 2.5 0.3333333333333333  6 2.5 0.3333333333333333  6.5 2.5 0.3333333333333333  7 2.5 0.3333333333333333  7.5 2.5 0.3333333333333333  8 2.5 0.3333333333333333  8.5 2.5 0.3333333333333333  9 2.5 0.3333333333333333  9.5 2.5 0.3333333333333333  10 2.5 0.3333333333333333  0 3 0.3333333333333333  0.5 3 0.3333333333333333  1 3 0.3333333333333333  1.5 3 0.3333333333333333  2 3 0.3333333333333333  2.5 3 0.3333333333333333  3 3 0.3333333333333333  3.5 3 0.3333333333333333  4 3 0.3333333333333333  4.5 3 0.3333333333333333  5 3 0.3333333333333333  5.5 3 0.3333333333333333  6 3 0.3333333333333333  6.5 3 0.3333333333333333  7 3 0.3333333333333333  7.5 3 0.3333333333333333  8 3 0.3333333333333333  8.5 3 0.3333333333333333  9 3 0.3333333333333333  9.5 3 0.3333333333333333  10 3 0.3333333333333333  0 0 0.5  0.5 0 0.5  1 0 0.5  1.5 0 0.5  2 0 0.5  2.5 0 0.5  3 0 0.5  3.5 0 0.5  4 0 0.5  4.5 0 0.5  5 0 0.5  5.5 0 0.5  6 0 0.5  6.5 0 0.5  7 0 0.5  7.5 0 0.5  8 0 0.5  8.5 0 0.5  9 0 0.5  9.5 0 0.5  10 0 0.5  0 0.5 0.5  0.5 0.5 0.5  1 0.5 0.5  1.5 0.5 0.5  2 0.5 0.5  2.5 0.5 0.5  3 0.5 0.5  3.5 0.5 0.5  4 0.5 0.5  4.5 0.5 0.5  5 0.5 0.5  5.5 0.5 0.5  6 0.5 0.5  6.5 0.5 0.5  7 0.5 0.5  7.5 0.5 0.5  8 0.5 0.5  8.5 0.5 0.5  9 0.5 0.5  9.5 0.5 0.5  10 0.5 0.5  0 1 0.5  0.5 1 0.5  1 1 0.5  1.5 1 0.5  2 1 0.5  2.5 1 0.5  3 1 0.5  3.5 1 0.5  4 1 0.5  4.5 1 0.5  5 1 0.5  5.5 1 0.5  6 1 0.5  6.5 1 0.5  7 1 0.5  7.5 1 0.5  8 1 0.5  8.5 1 0.5  9 1 0.5  9.5 1 0.5  10 1 0.5  0 1.5 0.5  0.5 1.5 0.5  1 1.5 0.5  1.5 1.5 0.5  2 1.5 0.5  2.5 1.5 0.5  3 1.5 0.5  3.5 1.5 0.5  4 1.5 0.5  4.5 1.5 0.5  5 1.5 0.5  5.5 1.5 0.5  6 1.5 0.5  6.5 1.5 0.5  7 1.5 0.5  7.5 1.5 0.5  8 1.5 0.5  8.
[...]
<PointData  Vectors="f_7-0"> 
<DataArray  type="Float64"  Name="f_7-0"  NumberOfComponents="3" format="ascii">0.0000000000000000e+00 0.0000000000000000e+00 0.0000000000000000e+00  5.3135606182315143e-01 4.5034746276199789e-01 8.5146619932450374e-02  1.2979145081026333e+00 5.0842182907212907e-01 8.6718667766013363e-02  2.0759894416451510e+00 5.1370977965702302e-01 8.7442315415896379e-02  2.8621943148012026e+00 5.1392335185998761e-01 8.7573278106644434e-02  3.6513108258358122e+00 5.1381905070923584e-01 8.7623917769389936e-02  4.4410789802814348e+00 5.1376704895711112e-01 8.7633386151981393e-02  5.2309850387152288e+00 5.1374492024468699e-01 8.7633483997527670e-02  6.0209182545704634e+00 5.1373486312139349e-01 8.7632718872147353e-02  6.8108520484477673e+00 5.1372999448884638e-01 8.7632073920162729e-02  7.6007816761312297e+00 5.1372749784774085e-01 8.7631654095367592e-02  8.3907077521921458e+00 5.1372615955061363e-01 8.7631414691594689e-02  9.1806315158171721e+00 5.1372542528059872e-01 8.7631284311366145e-02  9.9705538933061746e+00 5.1372501814004223e-01 8.7631213906991301e-02  1.0760475468973286e+01 5.1372479122339099e-01 8.7631175934396219e-02  1.1550396588991642e+01 5.1372466452000165e-01 8.7631155426644639e-02  1.2340317452593624e+01 5.1372459387721459e-01 8.7631144327175309e-02  1.3130238173125962e+01 5.1372455480136558e-01 8.7631138336470113e-02  1.3920158815166092e+01 5.1372453376589888e-01 8.7631135171634622e-02  1.4710079416269741e+01 5.1372452350835063e-01 8.7631133652141494e-02  1.5500000000000007e+01 5.1372452044607442e-01 8.7631133178338066e-02  0.0000000000000000e+00 0.0000000000000000e+00 0.0000000000000000e+00  5.0887065122584829e-01 2.8910199874879311e-01 8.9152791635089310e-02  1.2881243707848236e+00 3.3928294369732243e-01 8.7832979059800212e-02  2.0731982494084242e+00 3.4297796198043912e-01 8.7820463715513955e-02  2.8614856347732331e+00 3.4286395550753984e-01 8.7824593162248096e-02  3.6511563032870313e+00 3.4268435768172251e-01 8.7831599222229439e-02  4.4410474182384823e+00 3.4261314691983857e-01 8.7835857287115279e-02  5.2309817761562938e+00 3.4258746231531567e-01 8.7836168570880835e-02  6.0209207303511203e+00 3.4257749888520606e-01 8.7835593808307494e-02  6.8108546448116476e+00 3.4257319929350516e-01 8.7835153950384964e-02  7.6007834546728033e+00 3.4257115847334058e-01 8.7834888984961293e-02  8.3907088377305286e+00 3.4257011672031262e-01 8.7834733859236819e-02  9.1806321488829177e+00 3.4256956042386172e-01 8.7834645831979460e-02  9.9705542546352834e+00 3.4256925611951494e-01 8.7834596914068933e-02  1.0760475672983370e+01 3.4256908763427052e-01 8.7834569866076476e-02  1.1550396703441947e+01 3.4256899385392703e-01 8.7834554915397919e-02  1.2340317516351075e+01 3.4256894164078011e-01 8.7834546664319904e-02  1.3130238208074324e+01 3.4256891277476453e-01 8.7834542142318395e-02  1.3920158833363981e+01 3.4256889723918499e-01 8.7834539725981958e-02  1.4710079424021234e+01 3.4256888965773002e-01 8.7834538562216263e-02  1.5500000000000007e+01 3.4256888740623620e-01 8.7834538218642316e-02  0.0000000000000000e+00 0.0000000000000000e+00 0.0000000000000000e+00  4.9612964206134774e-01 1.4134756859605296e-01 9.2061088504652777e-02  1.2750128842543511e+00 1.6975710049942588e-01 8.8724419553471670e-02  2.0685994173758342e+00 1.7185283506529728e-01 8.8220739166163839e-02  2.8602047069429299e+00 1.7165136475917372e-01 8.8075693051706802e-02  3.6508509232674156e+00 1.7150317347192959e-01 8.8049273770135938e-02  4.4409831447748207e+00 1.7144732301185817e-01 8.8041633907700326e-02  5.2309772179587624e+00 1.7142741778281570e-01 8.8039242415058769e-02  6.0209274762790477e+00 1.7141974225745510e-01 8.8038478606933701e-02  6.8108609739064194e+00 1.7141647693509809e-01 8.8038207276942962e-02  7.6007876945833441e+00 1.7141494373053293e-01 8.8038087907576626e-02  8.3907114076724749e+00 1.7141416639197132e-01 8.8038024806640483e-02  9.1806336427846453e+00 1.7141375324145122e-01 8.8037989478421716e-02  9.9705551058844186e+00 1.7141352789291858e-01 8.8037969263564789e-02  1.0760476153256370e+01 1.7141340333717972e-01 8.8037957566201128e-02  1.1550396972795907e+01 1.7141333408256612e-01 8.8037950808716903e-02  1.2340317666383289e+01 1.7141329555081403e-01 8.8037946938178707e-02  1.3130238290312516e+01 1.7141327425773070e-01 8.8037944753904293e-02  1.3920158876193538e+01 1.7141326280081223e-01 8.8037943562184279e-02  1.4710079442254090e+01 1.7141325720808206e-01 8.8037942992014659e-02  1.5500000000000007e+01 1.7141325553703654e-01 8.8037942819726017e-02  0.0000000000000000e+00 0.0000000000000000e+00 0.0000000000000000e+00  4.9255191658872288e-01 1.0707979693484523e-03 9.2845913474582181e-02  1.2693642671477841e+00 4.5018941719544413e-04 8.9122928299630658e-02  2.0668129505279715e+00 3.2690777186932923e-04 8.8494864382839697e-02  2.8597538726592830e+00 2.9103530614156997e-04 8.8291189971589676e-02  3.6507656995077231e+00 2.8158590122410706e-04 8.8254610546092113e-02  4.4409886436712274e+00 2.7159478957017465e-04 8.8244419434289040e-02  5.2309975007976757e+00 2.6551741166567464e-04 8.8241667263978821e-02  6.0209437344602952e+00 2.6206419009183149e-04 8.8241240707144356e-02  6.8108713573095994e+00 2.6011610089029342e-04 8.8241240322918940e-02  7.6007938734959097e+00 2.5901784335870297e-04 8.8241281143586175e-02  8.3907149728655313e+00 2.5840119244017378e-04 8.8241311897652039e-02  9.1806356673473708e+00 2.5805606849499472e-04 8.8241329817761879e-02  9.9705562465864723e+00 2.5786292983848185e-04 8.8241338942903647e-02  1.0760476793373423e+01 2.5775488600934094e-04 8.8241343327976174e-02  1.1550397330849005e+01 2.5769450861605497e-04 8.8241345402334873e-02  1.2340317865563375e+01 2.5766085519341315e-04 8.8241346380485280e-02  1.3130238399426146e+01 2.5764225028856915e-04 8.8241346842647894e-02  1.3920158933007087e+01 2.5763224018130441e-04 8.8241347062160552e-02  1.4710079466459533e+01 2.5762734999292236e-04 8.8241347175482626e-02  1.5500000000000007e+01 2.5762588379679789e-04 8.8241347204683532e-02  0.0000000000000000e+00 0.0000000000000000e+00 0.0000000000000000e+00  4.9777041299847385e-01 -1.3874079041624229e-01 9.2114601473406568e-02  1.2747630438081776e+00 -1.6900131204186719e-01 8.9125511744682667e-02  2.0692735384532686e+00 -1.7119613660269231e-01 8.8556832380850228e-02  2.8606501967906923e+00 -1.7103160252783661e-01 8.8447046950867206e-02  3.6510796886193750e+00 -1.7092924343919241e-01 8.8443642340273645e-02  4.4411117362339381e+00 -1.7089970594231810e-01 8.8443327161863497e-02  5.2310509998255750e+00 -1.7089384520536452e-01 8.8443345362193865e-02  6.0209692500976777e+00 -1.7089420331468000e-01 8.8443958765584307e-02  6.8108843285037706e+00 -1.7089547501672139e-01 8.8444321101187759e-02  7.6008007871809156e+00 -1.7089648264505800e-01 8.8444514931245971e-02  8.3907187454234098e+00 -1.7089712624410142e-01 8.8444623203796521e-02  9.1806377500180929e+00 -1.7089750817072238e-01 8.8444682580102768e-02  9.9705574038352527e+00 -1.7089772772299383e-01 8.8444714574912014e-02  1.0760477438308868e+01 -1.7089785197127577e-01 8.8444731875678542e-02  1.1550397690349115e+01 -1.7089792174488216e-01 8.8444741291089132e-02  1.2340318065205713e+01 -1.7089796070682609e-01 8.8444746424751503e-02  1.3130238508703730e+01 -1.7089798225547653e-01 8.8444749214014184e-02  1.3920158989888542e+01 -1.7089799384948826e-01 8.8444750697948826e-02  1.4710079490698456e+01 -1.7089799951298898e-01 8.8444751429469004e-02  1.5500000000000007e+01 -1.7089800121401855e-01 8.8444751642640956e-02  0.0000000000000000e+00 0.0000000000000000e+00 0.0000000000000000e+00  5.1651102037927887e-01 -2.8851999091700503e-01 9.0905879071258217e-02  1.2879638491509078e+00 -3.3835274306227403e-01 8.8333733034340611e-02  2.0742433805858180e+00 -3.4216980137607167e-01 8.8439340564951341e-02  2.8622684729191188e+00 -3.4218558672385252e-01 8.8597375444874615e-02  3.6515742660048942e+00 -3.4208592485412098e-01 8.8631755048518085e-02  4.4412776209604230e+00 -3.4205230399128878e-01 8.8641917451336025e-02  5.2311123026275457e+00 -3.4204696767038190e-01 8.8645508719087787e-02  6.0209943110310542e+00 -3.4204817737640014e-01 8.8647005016509864e-02  6.8108957554759932e+00 -3.4205011253079903e-01 8.8647574589267336e-02  7.6008064703026479e+00 -3.4205153716898123e-01 8.8647839465672534e-02  8.3907217231819065e+00 -3.4205242846022960e-01 8.8647982283064988e-02  9.1806393587006259e+00 -3.4205295329599095e-01 8.8648059734525428e-02  9.9705582878517980e+00 -3.4205325344465159e-01 8.8648102663261175e-02  1.0760477928198734e+01 -3.4205342290219887e-01 8.8648126888415196e-02  1.1550397962645681e+01 -3.4205351795874100e-01 8.8648140573365897e-02  1.2340318216208242e+01 -3.4205357100121231e-01 8.8648148272344796e-02  1.3130238591303440e+01 -3.4205360032457482e-01 8.8648152563976748e-02  1.3920159032873002e+01 -3.4205361609763496e-01 8.8648154889279906e-02  1.4710079509017509e+01 -3.4205362380325799e-01 8.8648156043503873e-02  1.5500000000000007e+01 -3.4205362611466683e-01 8.8648156386005081e-02  0.0000000000000000e+00 0.0000000000000000e+00 0.0000000000000000e+00  5.4671322938603095e-01 -4.4723965918089670e-01 8.2118647660927857e-02  1.2969869397180440e+00 -5.0663620410274735e-01 8.6948811240615889e-02  2.0773178189812129e+00 -5.1281478985682283e-01 8.8721058393378877e-02  2.8631285683079577e+00 -5.1319083721245118e-01 8.8791938643232343e-02  3.6518056256751281e+00 -5.1318634892274784e-01 8.8827215808650911e-02  4.4413557155711274e+00 -5.1318985334382916e-01 8.8845400490798657e-02  5.2311406832362337e+00 -5.1319538819842936e-01 8.8849433598050850e-02  6.0210055204581714e+00 -5.1320051744227690e-01 8.8850650054695279e-02  6.8109007687443519e+00 -5.1320412809997007e-01 8.8851051658672922e-02  7.6008089300022306e+00 -5.1320632493238394e-01 8.8851274180490603e-02  8.3907230028622557e+00 -5.1320760508144270e-01 8.8851395244787815e-02  9.1806400464646885e+00 -5.1320833381069186e-01 8.8851463622726071e-02  9.9705586648295164e+00 -5.1320874449730891e-01 8.8851504932948300e-02  1.0760478136892742e+01 -5.1320897482165428e-01 8.8851529589350831e-02  1.1550398078576247e+01 -5.1320910359522887e-01 8.8851544053323239e-02  1.2340318280477851e+01 -5.1320917535045940e-01 8.8851552442814202e-02  1.3130238626455684e+01 -5.1320921499805239e-01 8.8851557228220412e-02  1.3920159051164427e+01 -5.1320923632171900e-01 8.8851559863300789e-02  1.4710079516804189e+01 -5.1320924674659574e-01 8.8851561170774335e-02  1.5500000000000007e+01 -5.1320924983107630e-01 8.8851561581526337e-02  0.0000000000000000e+00 0.0000000000000000e+00 0.0000000000000000e+00  5.3199002781115878e-01 4.4777571390346066e-01 2.9854258240607487e-02  1.2979862971670117e+00 5.0823096691326131e-01 3.0443263145718148e-02  2.0759902411489053e+00 5.1364464528513010e-01 3.0585067516480925e-02  2.8621940330543603e+00 5.1384521442863818e-01 3.0563116744043075e-02  3.6513103123921815e+00 5.1375059427981862e-01 3.0581476606980240e-02  4.4410793943658913e+00 5.1369996269283114e-01 3.0583137575439092e-02  5.2309852389211740e+00 5.1367746106265955e-01 3.0581279096533610e-02  6.0209183128885257e+00 5.1366723540706882e-01 3.0580305827910884e-02  6.8108520777144710e+00 5.1366228785076207e-01 3.0579808841816006e-02  7.6007816921276961e+00 5.1365974342489507e-01 3.0579535828688862e-02  8.3907077600042417e+00 5.1365838050435586e-01 3.0579395784132286e-02  9.1806315196637840e+00 5.1365763453673785e-01 3.0579326247129453e-02  9.9705538952750761e+00 5.1365722176386275e-01 3.0579291374495755e-02  1.0760475469995466e+01 5.1365699209868720e-01 3.0579273671531907e-02  1.1550396589525933e+01 5.1365686404754118e-01 3.0579264600706028e-02  1.2340317452873895e+01 5.1365679273754883e-01 3.0579259907206141e-02  1.3130238173270619e+01 5.1365675332818272e-01 3.0579257465718362e-02  1.3920158815232945e+01 5.1365673212838370e-01 3.0579256212986530e-02  1.4710079416288229e+01 5.1365672179411170e-01 3.0579255622081174e-02  1.5500000000000007e+01 5.1365671869316576e-01 3.0579255430288652e-02  0.0000000000000000e+00 0.0000000000000000e+00 0.0000000000000000e+00  5.1046909448109901e-01 2.8830341607504456e-01 3.1638506599550094e-02  1.2886344726936105e+00 3.3897380179335551e-01 3.0735934350161150e-02  2.0731094556948850e+00 3.4286628251507761e-01 3.0774932297152047e-02  2.8614851467989002e+00 3.4277968087510524e-01 3.0789590258429495e-02  3.6511591780477834e+00 3.4261448859800608e-01 3.0784326460306242e-02  4.4410479366374567e+00 3.4254556235903894e-01 3.0783988516471308e-02  5.2309818546293805e+00 3.4251989978062491e-01 3.0783606318297560e-02  6.0209207720969902e+00 3.4250986187182847e-01 3.0783182551957750e-02  6.8108546710047131e+00 3.4250549754574605e-01 3.0782935564293203e-02  7.6007834666009471e+00 3.4250341008096852e-01 3.0782807170236921e-02  8.3907088432459478e+00 3.4250234220765863e-01 3.0782738755187208e-02  9.1806321517220670e+00 3.4250177254831687e-01 3.0782702189330702e-02  9.9705542561325888e+00 3.4250146144725518e-01 3.0782682752598014e-02  1.0760475673774604e+01 3.4250128949783315e-01 3.0782672374199314e-02  1.1550396703864408e+01 3.4250119394772843e-01 3.0782666791209567e-02  1.2340317516577645e+01 3.4250114082426319e-01 3.0782663774397156e-02  1.3130238208193777e+01 3.4250111148790302e-01 3.0782662147776682e-02  1.3920158833421567e+01 3.4250109571242648e-01 3.0782661289459976e-02  1.4710079424039575e+01 3.4250108801788448e-01 3.0782660880040502e-02  1.5500000000000007e+01 3.4250108572519722e-01 3.0782660758064465e-02  0.0000000000000000e+00 0.0000000000000000e+00 0.0000000000000000e+00  4.9807293772953315e-01 1.4089067143269191e-01 3.2404056186941692e-02  1.2755509048878648e+00 1.6952533025840449e-01 3.1191126845033390e-02  2.0685077341060709e+00 1.7173628675543023e-01 3.1022708963102667e-02  2.8602137193220094e+00 1.7157650165239605e-01 3.0997349985772076e-02  3.6508559814204111e+00 1.7143456786181707e-01 3.0988722428449481e-02  4.4409829928617190e+00 1.7137944603394073e-01 3.0986227909346624e-02  5.2309772191400681e+00 1.7135977944740080e-01 3.0986047393154390e-02  6.0209275185027726e+00 1.7135209810300070e-01 3.0986056500670461e-02  6.8108609869126431e+00 1.7134877105666010e-01 3.0986067531482378e-02  7.6007876967283918e+00 1.7134719494097422e-01 3.0986075426269938e-02  8.3907114085240480e+00 1.7134639336064789e-01 3.0986076361076899e-02  9.1806336433093794e+00 1.7134596689169687e-01 3.0986074127669641e-02  9.9705551061519166e+00 1.7134573435577924e-01 3.0986071535473208e-02  1.0760476153399107e+01 1.7134560596472950e-01 3.0986069455430306e-02  1.1550396972877989e+01 1.7134553466251218e-01 3.0986067999594791e-02  1.2340317666430245e+01 1.7134549503344448e-01 3.0986067058032099e-02  1.3130238290338159e+01 1.7134547315326890e-01 3.0986066482780721e-02  1.3920158876205345e+01 1.7134546138863538e-01 3.0986066152734373e-02  1.4710079442256369e+01 1.7134545564863490e-01 3.0986065990514500e-02  1.5500000000000007e+01 1.7134545393366526e-01 3.0986065939305044e-02  0.0000000000000000e+00 0.0000000000000000e+00 0.0000000000000000e+00  4.9461596588868800e-01 1.0201429282568439e-03 3.2632920519893277e-02  1.2697806724730785e+00 3.2787050426766123e-04 3.1473650312507477e-02  2.0667897775399924e+00 2.6459995718082784e-04 3.1253619914637508e-02  2.8597561346260898e+00 2.3061829589792219e-04 3.1193266182925145e-02  3.6507693829206174e+00 2.1500784041089549e-04 3.1189791626604891e-02  4.4409877520791179e+00 2.0417638014223627e-04 3.1188413535972216e-02  5.2309975112059064e+00 1.9800050002080996e-04 3.1188726523090068e-02  6.0209437547256632e+00 1.9441482452033562e-04 3.1189076133133264e-02  6.8108713464665787e+00 1.9239027579751294e-04 3.1189278455768597e-02  7.6007938667618049e+00 1.9125768002035761e-04 3.1189381526356679e-02  8.3907149700093164e+00 1.9062282225300916e-04 3.1189430217777227e-02  9.1806356658555188e+00 1.9026733633453492e-04 3.1189452670080626e-02  9.9705562457614789e+00 1.9006841312974395e-04 3.1189462849952051e-02  1.0760476792936103e+01 1.8995715053330372e-04 3.1189467412690030e-02  1.1550397330618345e+01 1.8989497149915493e-04 3.1189469454444219e-02  1.2340317865440493e+01 1.8986031129966457e-04 3.1189470371087311e-02  1.3130238399361099e+01 1.8984114910189804e-04 3.1189470784306533e-02  1.3920158932974189e+01 1.8983083905790350e-04 3.1189470971002078e-02  1.4710079466446658e+01 1.8982580370241838e-04 3.1189471054190388e-02  1.5500000000000007e+01 1.8982429733573140e-04 3.1189471076199161e-02  0.0000000000000000e+00 0.0000000000000000e+00 0.0000000000000000e+00  4.9982835359090338e-01 -1.3862318652942432e-01 3.2638027440636007e-02  1.2751440075236482e+00 -1.6894390445072655e-01 3.1651392049586204e-02  2.0692624897101952e+00 -1.7120747304963116e-01 3.1406854411218890e-02  2.8606422531788751e+00 -1.7108903774738141e-01 3.1381172569896469e-02  3.6510818024366318e+00 -1.7099420544209920e-01 3.1389368277801477e-02  4.4411105643191515e+00 -1.7096649993994961e-01 3.1390915999308086e-02  5.2310509867500006e+00 -1.7096135618747993e-01 3.1391830011811790e-02  6.0209692295117048e+00 -1.7096191682345757e-01 3.1392377387234098e-02  6.8108842992298779e+00 -1.7096324023092008e-01 3.1392633460941108e-02  7.6008007769591917e+00 -1.7096426337081536e-01 3.1392755960652476e-02  8.3907187406273565e+00 -1.7096491541823219e-01 3.1392815768025793e-02  9.1806377473211249e+00 -1.7096530234033247e-01 3.1392845661497651e-02  9.9705574023524406e+00 -1.7096552488597760e-01 3.1392860649751615e-02  1.0760477437504600e+01 -1.7096565100286334e-01 3.1392868272264736e-02  1.1550397689907518e+01 -1.7096572192499221e-01 3.1392872213930868e-02  1.2340318064962593e+01 -1.7096576157398136e-01 3.1392874274592183e-02  1.3130238508572415e+01 -1.7096578352305522e-01 3.1392875356741276e-02  1.3920158989822481e+01 -1.7096579534061207e-01 3.1392875917734236e-02  1.4710079490674449e+01 -1.7096580111544998e-01 3.1392876186943988e-02  1.5500000000000007e+01 -1.7096580284544252e-01 3.1392876265533338e-02  0.0000000000000000e+00 0.0000000000000000e+00 0.0000000000000000e+00  5.1884162791252253e-01 -2.8748488019476426e-01 3.2797054515017195e-02  1.2882095235541542e+00 -3.3815893327428853e-01 3.1486601370433735e-02  2.0742543632585879e+00 -3.4221086076620449e-01 3.1519802651766043e-02  2.8622550287861821e+00 -3.4224495639827035e-01 3.1582182778806062e-02  3.6515733260569379e+00 -3.4215167024011800e-01 3.1592353529982402e-02  4.4412769683109827e+00 -3.4211996620507029e-01 3.1594938645161476e-02  5.2311122808945072e+00 -3.4211481036497354e-01 3.1595719191547904e-02  6.0209942740807705e+00 -3.4211602955862003e-01 3.1596048682113145e-02  6.8108957290595606e+00 -3.4211793440886190e-01 3.1596152448569927e-02  7.6008064630256644e+00 -3.4211934526722154e-01 3.1596204053526707e-02  8.3907217190423342e+00 -3.4212023140398862e-01 3.1596236170514574e-02  9.1806393560502535e+00 -3.4212075424522742e-01 3.1596254935525439e-02  9.9705582863434081e+00 -3.4212105407410437e-01 3.1596266131032315e-02  1.0760477927340725e+01 -3.4212122375182169e-01 3.1596272844642802e-02  1.1550397962149951e+01 -3.4212131910370147e-01 3.1596276799195411e-02  1.2340318215926011e+01 -3.4212137238849238e-01 3.1596279092509318e-02  1.3130238591147974e+01 -3.4212140187963780e-01 3.1596280399774065e-02  1.3920159032794892e+01 -3.4212141775636895e-01 3.1596281119201389e-02  1.4710079508989979e+01 -3.4212142551582780e-01 3.1596281479395548e-02  1.5500000000000007e+01 -3.4212142783926142e-01 3.1596281589707571e-02  0.0000000000000000e+00 0.0000000000000000e+00 0.0000000000000000e+00  5.4646926588671241e-01 -4.4588382522189496e-01 2.9145494135095994e-02  1.2977045987871383e+00 -5.0641360303714755e-01 3.1340506821881831e-02  2.0772910489317762e+00 -5.1293751046454661e-01 3.1844921022850407e-02  2.8630858376710613e+00 -5.1324657984323530e-01 3.1792179624603463e-02  3.6518060462537885e+00 -5.1325363392200840e-01 3.1800760585765663e-02  4.4413558756085987e+00 -5.1325821426059037e-01 3.1801265597795891e-02  5.2311405285812445e+00 -5.1326342596840779e-01 3.1800369420625293e-02  6.0210054784089548e+00 -5.1326845051079240e-01 3.1800002406751876e-02  6.8109007503929693e+00 -5.1327196649050100