<?xml version="1.0"?>
<VTKFile type="UnstructuredGrid"  version="0.1"  >
<UnstructuredGrid>
<Piece  NumberOfPoints="882" NumberOfCells="3600">
<Points>
<DataArray  type="Float64"  NumberOfComponents="3"  format="ascii">0 0 0  0.5 0 0  1 0 0  1.5 0 0  2 0 0  2.5 0 0  3 0 0  3.5 0 0  4 0 0  4.5 0 0  5 0 0  5.5 0 0  6 0 0  6.5 0 0  7 0 0  7.5 0 0  8 0 0  8.5 0 0  9 0 0  9.5 0 0  10 0 0  0 0.5 0  0.5 0.5 0  1 0.5 0  1.5 0.5 0  2 0.5 0  2.5 0.5 0  3 0.5 0  3.5 0.5 0  4 0.5 0  4.5 0.5 0  5 0.5 0  5.5 0.5 0  6 0.5 0  6.5 0.5 0  7 0.5 0  7.5 0.5 0  8 0.5 0  8.5 0.5 0  9 0.5 0  9.5 0.5 0  10 0.5 0  0 1 0  0.5 1 0  1 1 0  1.5 1 0  2 1 0  2.5 1 0  3 1 0  3.5 1 0  4 1 0  4.5 1 0  5 1 0  5.5 1 0  6 1 0  6.5 1 0  7 1 0  7.5 1 0  8 1 0  8.5 1 0  9 1 0  9.5 1 0  10 1 0  0 1.5 0  0.5 1.5 0  1 1.5 0  1.5 1.5 0  2 1.5 0  2.5 1.5 0  3 1.5 0  3.5 1.5 0  4 1.5 0  4.5 1.5 0  5 1.5 0  5.5 1.5 0  6 1.5 0  6.5 1.5 0  7 1.5 0  7.5 1.5 0  8 1.5 0  8.5 1.5 0  9 1.5 0  9.5 1.5 0  10 1.5 0  0 2 0  0.5 2 0  1 2 0  1.5 2 0  2 2 0  2.5 2 0  3 2 0  3.5 2 0  4 2 0  4.5 2 0  5 2 0  5.5 2 0  6 2 0  6.5 2 0  7 2 0  7.5 2 0  8 2 0  8.5 2 0  9 2 0  9.5 2 0  10 2 0  0 2.5 0  0.5 2.5 0  1 2.5 0  1.5 2.5 0  2 2.5 0  2.5 2.5 0  3 2.5 0  3.5 2.5 0  4 2.5 0  4.5 2.5 0  5 2.5 0  5.5 2.5 0  6 2.5 0  6.5 2.5 0  7 2.5 0  7.5 2.5 0  8 2.5 0  8.5 2.5 0  9 2.5 0  9.5 2.5 0  10 2.5 0  0 3 0  0.5 3 0  1 3 0  1.5 3 0  2 3 0  2.5 3 0  3 3 0  3.5 3 0  4 3 0  4.5 3 0  5 3 0  5.5 3 0  6 3 0  6.5 3 0  7 3 0  7.5 3 0  8 3 0  8.5 3 0  9 3 0  9.5 3 0  10 3 0  0 0 0.1  0.5 0 0.1  1 0 0.1  1.5 0 0.1  2 0 0.1  2.5 0 0.1  3 0 0.1  3.5 0 0.1  4 0 0.1  4.5 0 0.1  5 0 0.1  5.5 0 0.1  6 0 0.1  6.5 0 0.1  7 0 0.1  7.5 0 0.1  8 0 0.1  8.5 0 0.1  9 0 0.1  9.5 0 0.1  10 0 0.1  0 0.5 0.1  0.5 0.5 0.1  1 0.5 0.1  1.5 0.5 0.1  2 0.5 0.1  2.5 0.5 0.1  3 0.5 0.1  3.5 0.5 0.1  4 0.5 0.1  4.5 0.5 0.1  5 0.5 0.1  5.5 0.5 0.1  6 0.5 0.1  6.5 0.5 0.1  7 0.5 0.1  7.5 0.5 0.1  8 0.5 0.1  8.5 0.5 0.1  9 0.5 0.1  9.5 0.5 0.1  10 0.5 0.1  0 1 0.1  0.5 1 0.1  1 1 0.1  1.5 1 0.1  2 1 0.1  2.5 1 0.1  3 1 0.1  3.5 1 0.1  4 1 0.1  4.5 1 0.1  5 1 0.1  5.5 1 0.1  6 1 0.1  6.5 1 0.1  7 1 0.1  7.5 1 0.1  8 1 0.1  8.5 1 0.1  9 1 0.1  9.5 1 0.1  10 1 0.1  0 1.5 0.1  0.5 1.5 0.1  1 1.5 0.1  1.5 1.5 0.1  2 1.5 0.1  2.5 1.5 0.1  3 1.5 0.1  3.5 1.5 0.1  4 1.5 0.1  4.5 1.5 0.1  5 1.5 0.1  5.5 1.5 0.1  6 1.5 0.1  6.5 1.5 0.1  7 1.5 0.1  7.5 1.5 0.1  8 1.5 0.1  8.5 1.5 0.1  9 1.5 0.1  9.5 1.5 0.1  10 1.5 0.1  0 2 0.1  0.5 2 0.1  1 2 0.1  1.5 2 0.1  2 2 0.1  2.5 2 0.1  3 2 0.1  3.5 2 0.1  4 2 0.1  4.5 2 0.1  5 2 0.1  5.5 2 0.1  6 2 0.1  6.5 2 0.1  7 2 0.1  7.5 2 0.1  8 2 0.1  8.5 2 0.1  9 2 0.1  9.5 2 0.1  10 2 0.1  0 2.5 0.1  0.5 2.5 0.1  1 2.5 0.1  1.5 2.5 0.1  2 2.5 0.1  2.5 2.5 0.1  3 2.5 0.1  3.5 2.5 0.1  4 2.5 0.1  4.5 2.5 0.1  5 2.5 0.1  5.5 2.5 0.1  6 2.5 0.1  6.5 2.5 0.1  7 2.5 0.1  7.5 2.5 0.1  8 2.5 0.1  8.5 2.5 0.1  9 2.5 0.1  9.5 2.5 0.1  10 2.5 0.1  0 3 0.1  0.5 3 0.1  1 3 0.1  1.5 3 0.1  2 3 0.1  2.5 3 0.1  3 3 0.1  3.5 3 0.1  4 3 0.1  4.5 3 0.1  5 3 0.1  5.5 3 0.1  6 3 0.1  6.5 3 0.1  7 3 0.1  7.5 3 0.1  8 3 0.1  8.5 3 0.1  9 3 0.1  9.5 3 0.1  10 3 0.1  0 0 0.2  0.5 0 0.2  1 0 0.2  1.5 0 0.2  2 0 0.2  2.5 0 0.2  3 0 0.2  3.5 0 0.2  4 0 0.2  4.5 0 0.2  5 0 0.2  5.5 0 0.2  6 0 0.2  6.5 0 0.2  7 0 0.2  7.5 0 0.2  8 0 0.2  8.5 0 0.2  9 0 0.2  9.5 0 0.2  10 0 0.2  0 0.5 0.2  0.5 0.5 0.2  1 0.5 0.2  1.5 0.5 0.2  2 0.5 0.2  2.5 0.5 0.2  3 0.5 0.2  3.5 0.5 0.2  4 0.5 0.2  4.5 0.5 0.2  5 0.5 0.2  5.5 0.5 0.2  6 0.5 0.2  6.5 0.5 0.2  7 0.5 0.2  7.5 0.5 0.2  8 0.5 0.2  8.5 0.5 0.2  9 0.5 0.2  9.5 0.5 0.2  10 0.5 0.2  0 1 0.2  0.5 1 0.2  1 1 0.2  1.5 1 0.2  2 1 0.2  2.5 1 0.2  3 1 0.2  3.5 1 0.2  4 1 0.2  4.5 1 0.2  5 1 0.2  5.5 1 0.2  6 1 0.2  6.5 1 0.2  7 1 0.2  7.5 1 0.2  8 1 0.2  8.5 1 0.2  9 1 0.2  9.5 1 0.2  10 1 0.2  0 1.5 0.2  0.5 1.5 0.2  1 1.5 0.2  1.5 1.5 0.2  2 1.5 0.2  2.5 1.5 0.2  3 1.5 0.2  3.5 1.5 0.2  4 1.5 0.2  4.5 1.5 0.2  5 1.5 0.2  5.5 1.5 0.2  6 1.5 0.2  6.5 1.5 0.2  7 1.5 0.2  7.5 1.5 0.2  8 1.5 0.2  8.5 1.5 0.2  9 1.5 0.2  9.5 1.5 0.2  10 1.5 0.2  0 2 0.2  0.5 2 0.2  1 2 0.2  1.5 2 0.2  2 2 0.2  2.5 2 0.2  3 2 0.2  3.5 2 0.2  4 2 0.2  4.5 2 0.2  5 2 0.2  5.5 2 0.2  6 2 0.2  6.5 2 0.2  7 2 0.2  7.5 2 0.2  8 2 0.2  8.5 2 0.2  9 2 0.2  9.5 2 0.2  10 2 0.2  0 2.5 0.2  0.5 2.5 0.2  1 2.5 0.2  1.5 2.5 0.2  2 2.5 0.2  2.5 2.5 0.2  3 2.5 0.2  3.5 2.5 0.2  4 2.5 0.2  4.5 2.5 0.2  5 2.5 0.2  5.5 2.5 0.2  6 2.5 0.2  6.5 2.5 0.2  7 2.5 0.2  7.5 2.5 0.2  8 2.5 0.2  8.5 2.5 0.2  9 2.5 0.2  9.5 2.5 0.2  10 2.5 0.2  0 3 0.2  0.5 3 0.2  1 3 0.2  1.5 3 0.2  2 3 0.2  2.5 3 0.2  3 3 0.2  3.5 3 0.2  4 3 0.2  4.5 3 0.2  5 3 0.2  5.5 3 0.2  6 3 0.2  6.5 3 0.2  7 3 0.2  7.5 3 0.2  8 3 0.2  8.5 3 0.2  9 3 0.2  9.5 3 0.2  10 3 0.2  0 0 0.3  0.5 0 0.3  1 0 0.3  1.5 0 0.3  2 0 0.3  2.5 0 0.3  3 0 0.3  3.5 0 0.3  4 0 0.3  4.5 0 0.3  5 0 0.3  5.5 0 0.3  6 0 0.3  6.5 0 0.3  7 0 0.3  7.5 0 0.3  8 0 0.3  8.5 0 0.3  9 0 0.3  9.5 0 0.3  10 0 0.3  0 0.5 0.3  0.5 0.5 0.3  1 0.5 0.3  1.5 0.5 0.3  2 0.5 0.3  2.5 0.5 0.3  3 0.5 0.3  3.5 0.5 0.3  4 0.5 0.3  4.5 0.5 0.3  5 0.5 0.3  5.5 0.5 0.3  6 0.5 0.3  6.5 0.5 0.3  7 0.5 0.3  7.5 0.5 0.3  8 0.5 0.3  8.5 0.5 0.3  9 0.5 0.3  9.5 0.5 0.3  10 0.5 0.3  0 1 0.3  0.5 1 0.3  1 1 0.3  1.5 1 0.3  2 1 0.3  2.5 1 0.3  3 1 0.3  3.5 1 0.3  4 1 0.3  4.5 1 0.3  5 1 0.3  5.5 1 0.3  6 1 0.3  6.5 1 0.3  7 1 0.3  7.5 1 0.3  8 1 0.3  8.5 1 0.3  9 1 0.3  9.5 1 0.3  10 1 0.3  0 1.5 0.3  0.5 1.5 0.3  1 1.5 0.3  1.5 1.5 0.3  2 1.5 0.3  2.5 1.5 0.3  3 1.5 0.3  3.5 1.5 0.3  4 1.5 0.3  4.5 1.5 0.3  5 1.5 0.3  5.5 1.5 0.3  6 1.5 0.3  6.5 1.5 0.3  7 1.5 0.3  7.5 1.5 0.3  8 1.5 0.3  8.5 1.5 0.3  9 1.5 0.3  9.5 1.5 0.3  10 1.5 0.3  0 2 0.3  0.5 2 0.3  1 2 0.3  1.5 2 0.3  2 2 0.3  2.5 2 0.3  3 2 0.3  3.5 2 0.3  4 2 0.3  4.5 2 0.3  5 2 0.3  5.5 2 0.3  6 2 0.3  6.5 2 0.3  7 2 0.3  7.5 2 0.3  8 2 0.3  8.5 2 0.3  9 2 0.3  9.5 2 0.3  10 2 0.3  0 2.5 0.3  0.5 2.5 0.3  1 2.5 0.3  1.5 2.5 0.3  2 2.5 0.3  2.5 2.5 0.3  3 2.5 0.3  3.5 2.5 0.3  4 2.5 0.3  4.5 2.5 0.3  5 2.5 0.3  5.5 2.5 0.3  6 2.5 0.3  6.5 2.5 0.3  7 2.5 0.3  7.5 2.5 0.3  8 2.5 0.3  8.5 2.5 0.3  9 2.5 0.3  9.5 2.5 0.3  10 2.5 0.3  0 3 0.3  0.5 3 0.3  1 3 0.3  1.5 3 0.3  2 3 0.3  2.5 3 0.3  3 3 0.3  3.5 3 0.3  4 3 0.3  4.5 3 0.3  5 3 0.3  5.5 3 0.3  6 3 0.3  6.5 3 0.3  7 3 0.3  7.5 3 0.3  8 3 0.3  8.5 3 0.3  9 3 0.3  9.5 3 0.3  10 3 0.3  0 0 0.4  0.5 0 0.4  1 0 0.4  1.5 0 0.4  2 0 0.4  2.5 0 0.4  3 0 0.4  3.5 0 0.4  4 0 0.4  4.5 0 0.4  5 0 0.4  5.5 0 0.4  6 0 0.4  6.5 0 0.4  7 0 0.4  7.5 0 0.4  8 0 0.4  8.5 0 0.4  9 0 0.4  9.5 0 0.4  10 0 0.4  0 0.5 0.4  0.5 0.5 0.4  1 0.5 0.4  1.5 0.5 0.4  2 0.5 0.4  2.5 0.5 0.4  3 0.5 0.4  3.5 0.5 0.4  4 0.5 0.4  4.5 0.5 0.4  5 0.5 0.4  5.5 0.5 0.4  6 0.5 0.4  6.5 0.5 0.4  7 0.5 0.4  7.5 0.5 0.4  8 0.5 0.4  8.5 0.5 0.4  9 0.5 0.4  9.5 0.5 0.4  10 0.5 0.4  0 1 0.4  0.5 1 0.4  1 1 0.4  1.5 1 0.4  2 1 0.4  2.5 1 0.4  3 1 0.4  3.5 1 0.4  4 1 0.4  4.5 1 0.4  5 1 0.4  5.5 1 0.4  6 1 0.4  6.5 1 0.4  7 1 0.4  7.5 1 0.4  8 1 0.4  8.5 1 0.4  9 1 0.4  9.5 1 0.4  10 1 0.4  0 1.5 0.4  0.5 1.5 0.4  1 1.5 0.4  1.5 1.5 0.4  2 1.5 0.4  2.5 1.5 0.4  3 1.5 0.4  3.5 1.5 0.4  4 1.5 0.4  4.5 1.5 0.4  5 1.5 0.4  5.5 1.5 0.4  6 1.5 0.4  6.5 1.5 0.4  7 1.5 0.4  7.5 1.5 0.4  8 1.5 0.4  8.5 1.5 0.4  9 1.5 0.4  9.5 1.5 0.4  10 1.5 0.4  0 2 0.4  0.5 2 0.4  1 2 0.4  1.5 2 0.4  2 2 0.4  2.5 2 0.4  3 2 0.4  3.5 2 0.4  4 2 0.4  4.5 2 0.4  5 2 0.4  5.5 2 0.4  6 2 0.4  6.5 2 0.4  7 2 0.4  7.5 2 0.4  8 2 0.4  8.5 2 0.4  9 2 0.4  9.5 2 0.4  10 2 0.4  0 2.5 0.4  0.5 2.5 0.4  1 2.5 0.4  1.5 2.5 0.4  2 2.5 0.4  2.5 2.5 0.4  3 2.5 0.4  3.5 2.5 0.4  4 2.5 0.4  4.5 2.5 0.4  5 2.5 0.4  5.5 2.5 0.4  6 2.5 0.4  6.5 2.5 0.4  7 2.5 0.4  7.5 2.5 0.4  8 2.5 0.4  8.5 2.5 0.4  9 2.5 0.4  9.5 2.5 0.4  10 2.5 0.4  0 3 0.4  0.5 3 0.4  1 3 0.4  1.5 3 0.4  2 3 0.4  2.5 3 0.4  3 3 0.4  3.5 3 0.4  4 3 0.4  4.5 3 0.4  5 3 0.4  5.5 3 0.4  6 3 0.4  6.5 3 0.4  7 3 0.4  7.5 3 0.4  8 3 0.4  8.5 3 0.4  9 3 0.4  9.5 3 0.4  10 3 0.4  0 0 0.5  0.5 0 0.5  1 0 0.5  1.5 0 0.5  2 0 0.5  2.5 0 0.5  3 0 0.5  3.5 0 0.5  4 0 0.5  4.5 0 0.5  5 0 0.5  5.5 0 0.5  6 0 0.5  6.5 0 0.5  7 0 0.5  7.5 0 0.5  8 0 0.5  8.5 0 0.5  9 0 0.5  9.5 0 0.5  10 0 0.5  0 0.5 0.5  0.5 0.5 0.5  1 0.5 0.5  1.5 0.5 0.5  2 0.5 0.5  2.5 0.5 0.5  3 0.5 0.5  3.5 0.5 0.5  4 0.5 0.5  4.5 0.5 0.5  5 0.5 0.5  5.5 0.5 0.5  6 0.5 0.5  6.5 0.5 0.5  7 0.5 0.5  7.5 0.5 0.5  8 0.5 0.5  8.5 0.5 0.5  9 0.5 0.5  9.5 0.5 0.5  10 0.5 0.5  0 1 0.5  0.5 1 0.5  1 1 0.5  1.5 1 0.5  2 1 0.5  2.5 1 0.5  3 1 0.5  3.5 1 0.5  4 1 0.5  4.5 1 0.5  5 1 0.5  5.5 1 0.5  6 1 0.5  6.5 1 0.5  7 1 0.5  7.5 1 0.5  8 1 0.5  8.5 1 0.5  9 1 0.5  9.5 1 0.5  10 1 0.5  0 1.5 0.5  0.5 1.5 0.5  1 1.5 0.5  1.5 1.5 0.5  2 1.5 0.5  2.5 1.5 0.5  3 1.5 0.5  3.5 1.5 0.5  4 1.5 0.5  4.5 1.5 0.5  5 1.5 0.5  5.5 1.5 0.5  6 1.5 0.5  6.5 1.5 0.5  7 1.5 0.5  7.5 1.5 0.5  8 1.5 0.5  8.5 1.5 0.5  9 1.5 0.5  9.5 1.5 0.5  10 1.5 0.5  0 2 0.5  0.5 2 0.5  1 2 0.5  1.5 2 0.5  2 2 0.5  2.5 2 0.5  3 2 0.5  3.5 2 0.5  4 2 0.5  4.5 2 0.5  5 2 0.5  5.5 2 0.5  6 2 0.5  6.5 2 0.5  7 2 0.5  7.5 2 0.5  8 2 0.5  8.5 2 0.5  9 2 0.5  9.5 2 0.5  10 2 0.5  0 2.5 0.5  0.5 2.5 0.5  1 2.5 0.5  1.5 2.5 0.5  2 2.5 0.5  2.5 2.5 0.5  3 2.5 0.5  3.5 2.5 0.5  4 2.5 0.5  4.5 2.5 0.5  5 2.5 0.5  5.5 2.5 0.5  6 2.5 0.5  6.5 2.5 0.5  7 2.5 0.5  7.5 2.5 0.5  8 2.5 0.5  8.5 2.5 0.5  9 2.5 0.5  9.5 2.5 0.5  10 2.5 0.5  0 3 0.5  0.5 3 0.5  1 3 0.5  1.5 3 0.5  2 3 0.5  2.5 3 0.5  3 3 0.5  3.5 3 0.5  4 3 0.5  4.5 3 0.5  5 3 0.5  5.5 3 0.5  6 3 0.5  6.5 3 0.5  7 3 0.5  7.5 3 0.5  8 3 0.5  8.5 3 0.5  9 3 0.5  9.5 3 0.5  10 3 0.5  </DataArray>
</Points>
<Cells>
[...]
<PointData  Vectors="f_7-0"> 
<DataArray  type="Float64"  Name="f_7-0"  NumberOfComponents="3" format="ascii">0.0000000000000000e+00 0.0000000000000000e+00 0.0000000000000000e+00  9.0909284533678927e-02 7.0018495735498371e-02 1.8951104872265381e-02  1.7744974873815522e-01 1.1291440285427487e-01 1.7471000194833448e-02  2.6069717533635756e-01 1.3798602695555456e-01 1.8312286688943209e-02  3.5499638073978734e-01 1.4559661380566796e-01 2.0360661507831310e-02  4.5938737838402266e-01 1.4471400306831148e-01 2.1486832716401540e-02  5.6784470861079472e-01 1.4319905204744734e-01 2.1692774167160981e-02  6.7724484217153835e-01 1.4276061126152828e-01 2.1710364506893023e-02  7.8666354667724192e-01 1.4280597664254074e-01 2.1696079878889975e-02  8.9605578082859083e-01 1.4299016145992605e-01 2.1686894817292260e-02  1.0054331718375948e+00 1.4318455236954092e-01 2.1683818677732551e-02  1.1148198119849986e+00 1.4334864759461111e-01 2.1684565403678396e-02  1.2242260968377170e+00 1.4347643726477408e-01 2.1686950528586997e-02  1.3336539887636805e+00 1.4357276757353868e-01 2.1689664966694992e-02  1.4431011730919749e+00 1.4364440443726614e-01 2.1692120501981764e-02  1.5525639694063658e+00 1.4369719515575780e-01 2.1694125366241657e-02  1.6620386953638917e+00 1.4373555385651388e-01 2.1695664296209432e-02  1.7715221417307843e+00 1.4376263068069844e-01 2.1696782785458554e-02  1.8810116266161547e+00 1.4378059224642253e-01 2.1697536319490198e-02  1.9905049089542883e+00 1.4379083669819173e-01 2.1697965652960050e-02  2.0999999999999996e+00 1.4379418222822907e-01 2.1698112032917272e-02  0.0000000000000000e+00 0.0000000000000000e+00 0.0000000000000000e+00  5.5552425181404692e-02 2.9400958114484330e-02 2.0076198463493095e-02  1.4899215756893830e-01 7.7206096467680327e-02 2.0261433600416663e-02  2.4560995756233803e-01 9.9231953076412208e-02 2.0267817475655769e-02  3.5056475390108155e-01 1.0330189076740109e-01 2.0874870769601823e-02  4.5893134115554107e-01 1.0137176993714958e-01 2.1406601566338116e-02  5.6804270882054808e-01 9.9718400445336849e-02 2.1622506249743930e-02  6.7724434268775202e-01 9.9285923526959100e-02 2.1696728751881406e-02  7.8655132976639874e-01 9.9337229200861812e-02 2.1725363028113603e-02  8.9590328200202363e-01 9.9523657350626682e-02 2.1736271939504972e-02  1.0052861782262750e+00 9.9713978383115048e-02 2.1741267697218580e-02  1.1146953618116369e+00 9.9870825455558879e-02 2.1744709116154875e-02  1.2241272442597118e+00 9.9990875018162395e-02 2.1747494861701480e-02  1.3335780824624497e+00 1.0008033996612449e-01 2.1749830536850003e-02  1.4430440741911601e+00 1.0014641432312216e-01 2.1751738134669244e-02  1.5525217767085417e+00 1.0019492757181830e-01 2.1753240219348997e-02  1.6620082712126705e+00 1.0023011870529951e-01 2.1754378106393107e-02  1.7715011589526595e+00 1.0025494443002926e-01 2.1755200713708310e-02  1.8809984738368994e+00 1.0027140943522013e-01 2.1755752698481651e-02  1.9904985670594375e+00 1.0028080789034167e-01 2.1756068705237112e-02  2.0999999999999996e+00 1.0028386265246546e-01 2.1756166307388244e-02  0.0000000000000000e+00 0.0000000000000000e+00 0.0000000000000000e+00  3.5404102108754741e-02 7.3215424686327588e-03 1.8044298859029313e-02  1.2344364360699277e-01 4.0698865859504024e-02 2.3657970983662270e-02  2.3129631337027282e-01 5.5836640779169736e-02 2.2048098450522170e-02  3.4501288012065057e-01 5.7496822655266386e-02 2.1596989988294412e-02  4.5712384347190449e-01 5.6553182444671259e-02 2.1531627309191424e-02  5.6738572100124562e-01 5.5884655968687739e-02 2.1648856640446718e-02  6.7694588105703557e-01 5.5734145283117778e-02 2.1728107123716842e-02  7.8632270932762871e-01 5.5862757043858041e-02 2.1770280744795891e-02  8.9569305760530160e-01 5.6059087280719205e-02 2.1790682462723549e-02  1.0050984784689032e+00 5.6241005581360921e-02 2.1800757539626771e-02  1.1145374104409544e+00 5.6387017185568891e-02 2.1805901490344812e-02  1.2240004633425214e+00 5.6498134708166649e-02 2.1808780783636923e-02  1.3334795783699225e+00 5.6581080287721672e-02 2.1810597169495204e-02  1.4429693077321981e+00 5.6642560405076009e-02 2.1811851568069744e-02  1.5524662082767748e+00 5.6687850394189193e-02 2.1812758218091574e-02  1.6619680697384838e+00 5.6720781345405646e-02 2.1813417220174325e-02  1.7714733862941130e+00 5.6744046402440032e-02 2.1813883868104560e-02  1.8809810479559124e+00 5.6759489288062043e-02 2.1814193577704755e-02  1.9904901729098505e+00 5.6768306496178630e-02 2.1814367096667377e-02  2.0999999999999996e+00 5.6771175562471472e-02 2.1814421944344811e-02  0.0000000000000000e+00 0.0000000000000000e+00 0.0000000000000000e+00  3.2427016677819068e-02 2.2444660766225556e-03 1.5464289480496659e-02  1.0775814345242915e-01 4.7406116731770016e-03 2.6302262603425972e-02  2.2369210042960322e-01 9.1849887438162948e-03 2.3489267833975886e-02  3.4155835240308524e-01 1.0027697899884395e-02 2.2027377175577713e-02  4.5527285228594605e-01 1.0992075093665437e-02 2.1724767063779155e-02  5.6647271125710119e-01 1.1612559211420686e-02 2.1745066342264859e-02  6.7639587522652478e-01 1.2034024971990654e-02 2.1797447310637104e-02  7.8592917226120595e-01 1.2342976060952714e-02 2.1836312158594658e-02  8.9538740470623779e-01 1.2577098476541705e-02 2.1856615696241245e-02  1.0048568333660630e+00 1.2755497487229994e-02 2.1866078990492380e-02  1.1143478611069484e+00 1.2891222563695832e-02 2.1870061548373610e-02  1.2238538165603658e+00 1.2994203677576161e-02 2.1871652800613848e-02  1.3333676303470361e+00 1.3072061136470383e-02 2.1872278168513098e-02  1.4428849683901288e+00 1.3130601417492383e-02 2.1872538144491537e-02  1.5524036810945456e+00 1.3174203319523681e-02 2.1872661946046965e-02  1.6619228505261203e+00 1.3206132110639561e-02 2.1872730887466073e-02  1.7714421362919155e+00 1.3228780000413186e-02 2.1872772518763531e-02  1.8809614331224911e+00 1.3243844181904786e-02 2.1872796719498343e-02  1.9904807204604458e+00 1.3252453644055626e-02 2.1872806777881369e-02  2.0999999999999996e+00 1.3255254086863462e-02 2.1872808017007615e-02  0.0000000000000000e+00 0.0000000000000000e+00 0.0000000000000000e+00  3.5034219105576594e-02 -4.0672223842181596e-03 1.8108593652277710e-02  1.1482023988720982e-01 -2.7096862631245160e-02 2.4817968758891296e-02  2.2664139588184296e-01 -3.8439426766576579e-02 2.2713596716718663e-02  3.4236265851126590e-01 -3.7269395120433577e-02 2.1720574042442656e-02  4.5504203321521031e-01 -3.4696644009432440e-02 2.1747138436119712e-02  5.6580535198475890e-01 -3.2733452929437634e-02 2.1839425100802803e-02  6.7574568086997933e-01 -3.1730604135343753e-02 2.1896896342274499e-02  7.8541412825964496e-01 -3.1225546328285041e-02 2.1924773999964474e-02  8.9500497939083534e-01 -3.0941368062592411e-02 2.1935376254304119e-02  1.0045765324176437e+00 -3.0757393672466396e-02 2.1937978702867289e-02  1.1141415792449683e+00 -3.0625317306916422e-02 2.1937463516005833e-02  1.2237008487745837e+00 -3.0525551530706782e-02 2.1936111308720058e-02  1.3332536626781255e+00 -3.0449096259258995e-02 2.1934761073759940e-02  1.4428001479114425e+00 -3.0390735252032633e-02 2.1933654448321425e-02  1.5523411245404815e+00 -3.0346768776563348e-02 2.1932811879029790e-02  1.6618776879056218e+00 -3.0314340059891025e-02 2.1932194247208849e-02  1.7714109332053110e+00 -3.0291244244316388e-02 2.1931756772314737e-02  1.8809418431743898e+00 -3.0275850604379668e-02 2.1931466082040559e-02  1.9904712782891116e+00 -3.0267045954215359e-02 2.1931297401460850e-02  2.0999999999999996e+00 -3.0264182294689926e-02 2.1931240141432343e-02  0.0000000000000000e+00 0.0000000000000000e+00 0.0000000000000000e+00  4.8534321682550535e-02 -1.9298706238513486e-02 2.1076322186878459e-02  1.3984149173869362e-01 -6.3667007832591410e-02 2.0933117414526851e-02  2.3782400929298422e-01 -8.3765475050478502e-02 2.0403019731787153e-02  3.4548665818482222e-01 -8.3694947827061966e-02 2.1199231178360343e-02  4.5520587791405143e-01 -7.9512914696031764e-02 2.1793549503903813e-02  5.6511389280463908e-01 -7.6758483169834080e-02 2.1988541376303038e-02  6.7500287323387509e-01 -7.5460021421811851e-02 2.2030292528780259e-02  7.8484590010296862e-01 -7.4837373898549997e-02 2.2032293924023973e-02  8.9460728417020885e-01 -7.4508749289422152e-02 2.2023472212823209e-02  1.0043017176170821e+00 -7.4307853447918473e-02 2.2013985752504076e-02  1.1139483916737756e+00 -7.4167987092443682e-02 2.2006528113134857e-02  1.2235617508456356e+00 -7.4063238933662873e-02 2.2001187242080895e-02  1.3331516720561032e+00 -7.3982852605299992e-02 2.1997442991169538e-02  1.4427247874196725e+00 -7.3921248589252198e-02 2.1994808563563110e-02  1.5522856839791264e+00 -7.3874673447750339e-02 2.1992938786777300e-02  1.6618376784733835e+00 -7.3840235472270407e-02 2.1991611326456901e-02  1.7713832813546173e+00 -7.3815671860140125e-02 2.1990686239597969e-02  1.8809244756348016e+00 -7.3799286029341576e-02 2.1990077169771149e-02  1.9904629063901971e+00 -7.3789908194304657e-02 2.1989723847348295e-02  2.0999999999999996e+00 -7.3786856419086527e-02 2.1989607862898403e-02  0.0000000000000000e+00 0.0000000000000000e+00 0.0000000000000000e+00  8.2802258639221554e-02 -5.4790568831752914e-02 1.8965497476392722e-02  1.6903668996302681e-01 -1.0109457230860130e-01 1.7109986299097234e-02  2.5117707334681599e-01 -1.2295700211563920e-01 1.8214847800704280e-02  3.4718862814760371e-01 -1.2671003883034851e-01 2.1084792917395571e-02  4.5400650516442348e-01 -1.2325366401922806e-01 2.2144256845781338e-02  5.6391897164045257e-01 -1.2053840521122969e-01 2.2228490334811120e-02  6.7422768069026107e-01 -1.1918746846881588e-01 2.2192718066609874e-02  7.8436265150413176e-01 -1.1850135030045089e-01 2.2148617069843082e-02  8.9430165769155678e-01 -1.1812431306266007e-01 2.2112497657032004e-02  1.0040996305899801e+00 -1.1789204721152197e-01 2.2088946843758929e-02  1.1138077119889391e+00 -1.1773251793253889e-01 2.2074396562994546e-02  1.2234598382492168e+00 -1.1761511771965449e-01 2.2065326416489409e-02  1.3330761891157479e+00 -1.1752620275883738e-01 2.2059453901104729e-02  1.4426685343690113e+00 -1.1745859632565930e-01 2.2055482176038230e-02  1.5522440637580017e+00 -1.1740768877774549e-01 2.2052708237749408e-02  1.6618075443734392e+00 -1.1737011498636891e-01 2.2050749040844288e-02  1.7713624197418758e+00 -1.1734333212851024e-01 2.2049385965410201e-02  1.8809113633128023e+00 -1.1732546846704282e-01 2.2048487840083456e-02  1.9904565881901819e+00 -1.1731524117510982e-01 2.2047974172319136e-02  2.0999999999999996e+00 -1.1731192997539010e-01 2.2047808425931924e-02  0.0000000000000000e+00 0.0000000000000000e+00 0.0000000000000000e+00  9.1859507860780898e-02 6.9560554981075357e-02 1.2017721069987750e-02  1.7735563218303887e-01 1.1256774809455669e-01 1.0644500827325577e-02  2.6056558750008352e-01 1.3766843518864705e-01 1.1016311574733338e-02  3.5484593105527085e-01 1.4553551201720399e-01 1.2225016368367484e-02  4.5931923607926062e-01 1.4474917496107928e-01 1.2898743813796047e-02  5.6783622026920177e-01 1.4321029111596323e-01 1.3011955684898746e-02  6.7724431767802629e-01 1.4276153194408034e-01 1.3014113669198102e-02  7.8666463941149611e-01 1.4279888376384872e-01 1.3001260827630411e-02  8.9605633610597757e-01 1.4298004072991177e-01 1.2993337902099417e-02  1.0054332401265997e+00 1.4317316894550905e-01 1.2989997717020439e-02  1.1148196202496734e+00 1.4333684778621475e-01 1.2989530813827308e-02  1.2242258132200390e+00 1.4346456571906666e-01 1.2990395326283509e-02  1.3336537067464582e+00 1.4356093935796602e-01 1.2991672815878137e-02  1.4431009311903178e+00 1.4363264586205421e-01 1.2992929071665722e-02  1.5525637775476036e+00 1.4368550185343654e-01 1.2993998168548782e-02  1.6620385516562775e+00 1.4372391305726750e-01 1.2994839516193306e-02  1.7715220407405359e+00 1.4375102869786666e-01 1.2995461094913976e-02  1.8810115633862727e+00 1.4376901597482006e-01 1.2995884476499570e-02  1.9905048781261341e+00 1.4377927583371430e-01 1.2996127510062553e-02  2.0999999999999996e+00 1.4378262988307156e-01 1.2996213818521358e-02  0.0000000000000000e+00 0.0000000000000000e+00 0.0000000000000000e+00  5.6234079571835016e-02 2.9946126169420217e-02 1.2276381038180543e-02  1.4896340204909356e-01 7.6712744482414941e-02 1.2265081744584795e-02  2.4558258289992091e-01 9.8929671223578472e-02 1.2148529621076265e-02  3.5050580390191366e-01 1.0317179167612940e-01 1.2545345490774502e-02  4.5889197193227510e-01 1.0134945595812435e-01 1.2847747788245923e-02  5.6802755498083057e-01 9.9721319016353588e-02 1.2976841406073410e-02  6.7723985481731697e-01 9.9283796518387465e-02 1.3021027651704490e-02  7.8654962912321025e-01 9.9330259177279057e-02 1.3037033132740865e-02  8.9590258164547776e-01 9.9513685755070441e-02 1.3042966569546278e-02  1.0052857473249464e+00 9.9702650037722024e-02 1.3045491936711588e-02  1.1146950201771726e+00 9.9858998156784784e-02 1.3047307359175257e-02  1.2241269481819204e+00 9.9978935520910431e-02 1.3048816966738069e-02  1.3335778336101294e+00 1.0006843519371553e-01 1.3050121305426586e-02  1.4430438734042283e+00 1.0013458619366217e-01 1.3051206644554685e-02  1.5525216211319934e+00 1.0018317650907786e-01 1.3052071920639972e-02  1.6620081556106874e+00 1.0021843177068092e-01 1.3052732918684608e-02  1.7715010777596281e+00 1.0024330589002468e-01 1.3053213576922781e-02  1.8809984222848712e+00 1.0025980435747175e-01 1.3053537433843859e-02  1.9904985423218904e+00 1.0026922171229326e-01 1.3053723392776495e-02  2.0999999999999996e+00 1.0027228690609362e-01 1.3053780747061114e-02  0.0000000000000000e+00 0.0000000000000000e+00 0.0000000000000000e+00  3.4833327411628298e-02 7.4420090985138267e-03 1.0952799423848903e-02  1.2353427489074292e-01 4.0565705272111313e-02 1.4250510885799735e-02  2.3140217385777970e-01 5.5547573446456756e-02 1.3204737369642273e-02  3.4505663622484706e-01 5.7372566774978505e-02 1.2974215943281778e-02  4.5711754087434514e-01 5.6510844146655005e-02 1.2926161532330394e-02  5.6737585482211916e-01 5.5869430876819649e-02 1.3006560150731273e-02  6.7693924993877241e-01 5.5724100373780158e-02 1.3056424147579546e-02  7.8631915664377183e-01 5.5851977217634900e-02 1.3082957613278578e-02  8.9569131644103162e-01 5.6047476175046330e-02 1.3095911326407649e-02  1.0050976108677117e+00 5.6228930541245725e-02 1.3102450544958301e-02  1.1145369530388671e+00 5.6374815207764405e-02 1.3105854144319189e-02  1.2240001905275488e+00 5.6485977993518247e-02 1.3107774817952724e-02  1.3334793987973659e+00 5.6569033668033758e-02 1.3108988447489861e-02  1.4429691806041685e+00 5.6630632174612165e-02 1.3109818417027625e-02  1.5524661160226132e+00 5.6676025756886995e-02 1.3110410878262929e-02  1.6619680033643391e+00 5.6709038936118443e-02 1.3110836504271922e-02  1.7714733404419833e+00 5.6732364887238852e-02 1.3111135150825378e-02  1.8809810193095802e+00 5.6747849209455629e-02 1.3111332053623873e-02  1.9904901588990369e+00 5.6756690749632757e-02 1.3111442283231693e-02  2.0999999999999996e+00 5.6759568674106260e-02 1.3111477658866087e-02  0.0000000000000000e+00 0.0000000000000000e+00 0.0000000000000000e+00  3.1898751940950314e-02 2.2625868266010108e-03 9.3872872588207455e-03  1.0741808278758329e-01 4.7749368785481834e-03 1.5873444483031005e-02  2.2399272076669899e-01 9.1095696725206690e-03 1.4091282817801146e-02  3.4167051011191935e-01 9.9825666115640650e-03 1.3255393798310306e-02  4.5528579690626442e-01 1.0963967014695160e-02 1.3069778577575413e-02  5.6646744265009508e-01 1.1592949507008654e-02 1.3086070290356402e-02  6.7638960531370518e-01 1.2017753789434173e-02 1.3118112322279971e-02  7.8592567000997582e-01 1.2328161265857349e-02 1.3143716390914965e-02  8.9538566013976117e-01 1.2563213105555618e-02 1.3157257507902758e-02  1.0048560667907722e+00 1.2742235601815293e-02 1.3163829791647279e-02  1.1143475463516630e+00 1.2878412179353531e-02 1.3166752471011577e-02  1.2238536916253238e+00 1.2981728980890617e-02 1.3168041173787025e-02  1.3333675807681229e+00 1.3059839916618623e-02 1.3168624261010866e-02  1.4428849466569216e+00 1.3118570665484445e-02 1.3168909691714008e-02  1.5524036701295192e+00 1.3162314481149625e-02 1.3169064899268784e-02  1.6619228442087934e+00 1.3194347218933141e-02 1.3169156700888449e-02  1.7714421324768084e+00 1.3217068853403978e-02 1.3169212787947516e-02  1.8809614309980411e+00 1.3232182105498973e-02 1.3169245829586751e-02  1.9904807193858476e+00 1.3240819696270657e-02 1.3169262098087602e-02  2.0999999999999996e+00 1.3243629018402391e-02 1.3169265702876723e-02  0.0000000000000000e+00 0.0000000000000000e+00 0.0000000000000000e+00  3.4660356970975907e-02 -4.2664120672604644e-03 1.0932600966595304e-02  1.1448610483362252e-01 -2.6837329980608407e-02 1.5039971594800552e-02  2.2691608905156366e-01 -3.8227475055313903e-02 1.3670401000164256e-02  3.4243564873967131e-01 -3.7212119397896593e-02 1.3116737614082215e-02  4.5503332861072904e-01 -3.4699756321185111e-02 1.3113451381371677e-02  5.6579643819911085e-01 -3.2753687136542108e-02 1.3168466758039385e-02  6.7574000446730509e-01 -3.1751453114579796e-02 1.3203142799128948e-02  7.8541196494729115e-01 -3.1243769584630845e-02 1.3221237197638871e-02  8.9500422592436990e-01 -3.0957227127898793e-02 1.3228279693424319e-02  1.0045764489334537e+00 -3.0771684003907011e-02 1.3230338718687902e-02  1.1141417106729716e+00 -3.0638635653076524e-02 1.3230334952727787e-02  1.2237010208988346e+00 -3.0538272221546311e-02 1.3229717592524795e-02  1.3332538148500428e+00 -3.0461438230789187e-02 1.3229026841141515e-02  1.4428002671557307e+00 -3.0402827228039674e-02 1.3228437547452268e-02  1.5523412133683272e+00 -3.0358689665029484e-02 1.3227978851702392e-02  1.6618777518730155e+00 -3.0326141977738107e-02 1.3227637690309022e-02  1.7714109772051609e+00 -3.0302964266636902e-02 1.3227393567923722e-02  1.8809418708684627e+00 -3.0287517009900872e-02 1.3227230139955502e-02  1.9904712914820384e+00 -3.0278681534437399e-02 1.3227135200373261e-02  2.0999999999999996e+00 -3.0275809358043634e-02 1.3227101972634063e-02  0.0000000000000000e+00 0.0000000000000000e+00 0.0000000000000000e+00  4.8584881465502695e-02 -1.9288568498737901e-02 1.2788551305397780e-02  1.3994531388408818e-01 -6.3420338007356428e-02 1.2732528363916468e-02  2.3785193551136807e-01 -8.3440341806497120e-02 1.2330115257692500e-02  3.4545132944296569e-01 -8.3612143261997743e-02 1.2841389012476083e-02  4.5517327988404288e-01 -7.9533097124331847e-02 1.3177179819113703e-02  5.6510056230184202e-01 -7.6788513414030091e-02 1.3288049514064041e-02  6.7500026251849499e-01 -7.5485781335472360e-02 1.3311436367487233e-02  7.8484658631252702e-01 -7.4857728010286867e-02 1.3312089481882216e-02  8.9460840862023172e-01 -7.4525469470692496e-02 1.3306196921410792e-02  1.0043027552929829e+00 -7.4322427453376583e-02 1.3300149840932347e-02  1.1139491695628185e+00 -7.4181365752142167e-02 1.3295450248363165e-02  1.2235623037577297e+00 -7.4075943818090739e-02 1.3292097695905497e-02  1.3331520602685512e+00 -7.3995159496998614e-02 1.3289756844058092e-02  1.4427250615126215e+00 -7.3933304225989385e-02 1.3288117387807647e-02  1.5522858783068150e+00 -7.3886561493511943e-02 1.3286959385141791e-02  1.6618378151012319e+00 -7.3852008500669822e-02 1.3286141109833517e-02  1.7713833741574245e+00 -7.3827366286172064e-02 1.3285573252800720e-02  1.8809245334978784e+00 -7.3810929351188645e-02 1.3285200578678843e-02  1.9904629336685791e+00 -7.3801522967751845e-02 1.3284985936164404e-02  2.0999999999999996e+00 -7.3798465810474154e-02 1.3284914475081103e-02  0.0000000000000000e+00 0.0000000000000000e+00 0.0000000000000000e+00  8.4028902379627624e-02 -5.5399290407010020e-02 1.2121981561460011e-02  1.6924589481297225e-01 -1.0079584058820143e-01 1.0497673752468841e-02  2.5104419867333971e-01 -1.2247338695368118e-01 1.1066481041535323e-02  3.4706450523276977e-01 -1.2665260715495111e-01 1.2862281114646254e-02  4.5394198232887822e-01 -1.2329118577078374e-01 1.3419381621909865e-02  5.6390886854405864e-01 -1.2058468278803557e-01 1.3461930672411217e-02  6.7423003773923174e-01 -1.1921844439154410e-01 1.3438351232524662e-02  7.8436656406881733e-01 -1.1852420800398383e-01 1.3408995874207340e-02  8.9430463562414031e-01 -1.1814179855619958