<?xml version="1.0"?>
<VTKFile type="UnstructuredGrid"  version="0.1"  >
<UnstructuredGrid>
<Piece  NumberOfPoints="882" NumberOfCells="3600">
<Points>
<DataArray  type="Float64"  NumberOfComponents="3"  format="ascii">0 0 0  0.5 0 0  1 0 0  1.5 0 0  2 0 0  2.5 0 0  3 0 0  3.5 0 0  4 0 0  4.5 0 0  5 0 0  5.5 0 0  6 0 0  6.5 0 0  7 0 0  7.5 0 0  8 0 0  8.5 0 0  9 0 0  9.5 0 0  10 0 0  0 0.5 0  0.5 0.5 0  1 0.5 0  1.5 0.5 0  2 0.5 0  2.5 0.5 0  3 0.5 0  3.5 0.5 0  4 0.5 0  4.5 0.5 0  5 0.5 0  5.5 0.5 0  6 0.5 0  6.5 0.5 0  7 0.5 0  7.5 0.5 0  8 0.5 0  8.5 0.5 0  9 0.5 0  9.5 0.5 0  10 0.5 0  0 1 0  0.5 1 0  1 1 0  1.5 1 0  2 1 0  2.5 1 0  3 1 0  3.5 1 0  4 1 0  4.5 1 0  5 1 0  5.5 1 0  6 1 0  6.5 1 0  7 1 0  7.5 1 0  8 1 0  8.5 1 0  9 1 0  9.5 1 0  10 1 0  0 1.5 0  0.5 1.5 0  1 1.5 0  1.5 1.5 0  2 1.5 0  2.5 1.5 0  3 1.5 0  3.5 1.5 0  4 1.5 0  4.5 1.5 0  5 1.5 0  5.5 1.5 0  6 1.5 0  6.5 1.5 0  7 1.5 0  7.5 1.5 0  8 1.5 0  8.5 1.5 0  9 1.5 0  9.5 1.5 0  10 1.5 0  0 2 0  0.5 2 0  1 2 0  1.5 2 0  2 2 0  2.5 2 0  3 2 0  3.5 2 0  4 2 0  4.5 2 0  5 2 0  5.5 2 0  6 2 0  6.5 2 0  7 2 0  7.5 2 0  8 2 0  8.5 2 0  9 2 0  9.5 2 0  10 2 0  0 2.5 0  0.5 2.5 0  1 2.5 0  1.5 2.5 0  2 2.5 0  2.5 2.5 0  3 2.5 0  3.5 2.5 0  4 2.5 0  4.5 2.5 0  5 2.5 0  5.5 2.5 0  6 2.5 0  6.5 2.5 0  7 2.5 0  7.5 2.5 0  8 2.5 0  8.5 2.5 0  9 2.5 0  9.5 2.5 0  10 2.5 0  0 3 0  0.5 3 0  1 3 0  1.5 3 0  2 3 0  2.5 3 0  3 3 0  3.5 3 0  4 3 0  4.5 3 0  5 3 0  5.5 3 0  6 3 0  6.5 3 0  7 3 0  7.5 3 0  8 3 0  8.5 3 0  9 3 0  9.5 3 0  10 3 0  0 0 0.1  0.5 0 0.1  1 0 0.1  1.5 0 0.1  2 0 0.1  2.5 0 0.1  3 0 0.1  3.5 0 0.1  4 0 0.1  4.5 0 0.1  5 0 0.1  5.5 0 0.1  6 0 0.1  6.5 0 0.1  7 0 0.1  7.5 0 0.1  8 0 0.1  8.5 0 0.1  9 0 0.1  9.5 0 0.1  10 0 0.1  0 0.5 0.1  0.5 0.5 0.1  1 0.5 0.1  1.5 0.5 0.1  2 0.5 0.1  2.5 0.5 0.1  3 0.5 0.1  3.5 0.5 0.1  4 0.5 0.1  4.5 0.5 0.1  5 0.5 0.1  5.5 0.5 0.1  6 0.5 0.1  6.5 0.5 0.1  7 0.5 0.1  7.5 0.5 0.1  8 0.5 0.1  8.5 0.5 0.1  9 0.5 0.1  9.5 0.5 0.1  10 0.5 0.1  0 1 0.1  0.5 1 0.1  1 1 0.1  1.5 1 0.1  2 1 0.1  2.5 1 0.1  3 1 0.1  3.5 1 0.1  4 1 0.1  4.5 1 0.1  5 1 0.1  5.5 1 0.1  6 1 0.1  6.5 1 0.1  7 1 0.1  7.5 1 0.1  8 1 0.1  8.5 1 0.1  9 1 0.1  9.5 1 0.1  10 1 0.1  0 1.5 0.1  0.5 1.5 0.1  1 1.5 0.1  1.5 1.5 0.1  2 1.5 0.1  2.5 1.5 0.1  3 1.5 0.1  3.5 1.5 0.1  4 1.5 0.1  4.5 1.5 0.1  5 1.5 0.1  5.5 1.5 0.1  6 1.5 0.1  6.5 1.5 0.1  7 1.5 0.1  7.5 1.5 0.1  8 1.5 0.1  8.5 1.5 0.1  9 1.5 0.1  9.5 1.5 0.1  10 1.5 0.1  0 2 0.1  0.5 2 0.1  1 2 0.1  1.5 2 0.1  2 2 0.1  2.5 2 0.1  3 2 0.1  3.5 2 0.1  4 2 0.1  4.5 2 0.1  5 2 0.1  5.5 2 0.1  6 2 0.1  6.5 2 0.1  7 2 0.1  7.5 2 0.1  8 2 0.1  8.5 2 0.1  9 2 0.1  9.5 2 0.1  10 2 0.1  0 2.5 0.1  0.5 2.5 0.1  1 2.5 0.1  1.5 2.5 0.1  2 2.5 0.1  2.5 2.5 0.1  3 2.5 0.1  3.5 2.5 0.1  4 2.5 0.1  4.5 2.5 0.1  5 2.5 0.1  5.5 2.5 0.1  6 2.5 0.1  6.5 2.5 0.1  7 2.5 0.1  7.5 2.5 0.1  8 2.5 0.1  8.5 2.5 0.1  9 2.5 0.1  9.5 2.5 0.1  10 2.5 0.1  0 3 0.1  0.5 3 0.1  1 3 0.1  1.5 3 0.1  2 3 0.1  2.5 3 0.1  3 3 0.1  3.5 3 0.1  4 3 0.1  4.5 3 0.1  5 3 0.1  5.5 3 0.1  6 3 0.1  6.5 3 0.1  7 3 0.1  7.5 3 0.1  8 3 0.1  8.5 3 0.1  9 3 0.1  9.5 3 0.1  10 3 0.1  0 0 0.2  0.5 0 0.2  1 0 0.2  1.5 0 0.2  2 0 0.2  2.5 0 0.2  3 0 0.2  3.5 0 0.2  4 0 0.2  4.5 0 0.2  5 0 0.2  5.5 0 0.2  6 0 0.2  6.5 0 0.2  7 0 0.2  7.5 0 0.2  8 0 0.2  8.5 0 0.2  9 0 0.2  9.5 0 0.2  10 0 0.2  0 0.5 0.2  0.5 0.5 0.2  1 0.5 0.2  1.5 0.5 0.2  2 0.5 0.2  2.5 0.5 0.2  3 0.5 0.2  3.5 0.5 0.2  4 0.5 0.2  4.5 0.5 0.2  5 0.5 0.2  5.5 0.5 0.2  6 0.5 0.2  6.5 0.5 0.2  7 0.5 0.2  7.5 0.5 0.2  8 0.5 0.2  8.5 0.5 0.2  9 0.5 0.2  9.5 0.5 0.2  10 0.5 0.2  0 1 0.2  0.5 1 0.2  1 1 0.2  1.5 1 0.2  2 1 0.2  2.5 1 0.2  3 1 0.2  3.5 1 0.2  4 1 0.2  4.5 1 0.2  5 1 0.2  5.5 1 0.2  6 1 0.2  6.5 1 0.2  7 1 0.2  7.5 1 0.2  8 1 0.2  8.5 1 0.2  9 1 0.2  9.5 1 0.2  10 1 0.2  0 1.5 0.2  0.5 1.5 0.2  1 1.5 0.2  1.5 1.5 0.2  2 1.5 0.2  2.5 1.5 0.2  3 1.5 0.2  3.5 1.5 0.2  4 1.5 0.2  4.5 1.5 0.2  5 1.5 0.2  5.5 1.5 0.2  6 1.5 0.2  6.5 1.5 0.2  7 1.5 0.2  7.5 1.5 0.2  8 1.5 0.2  8.5 1.5 0.2  9 1.5 0.2  9.5 1.5 0.2  10 1.5 0.2  0 2 0.2  0.5 2 0.2  1 2 0.2  1.5 2 0.2  2 2 0.2  2.5 2 0.2  3 2 0.2  3.5 2 0.2  4 2 0.2  4.5 2 0.2  5 2 0.2  5.5 2 0.2  6 2 0.2  6.5 2 0.2  7 2 0.2  7.5 2 0.2  8 2 0.2  8.5 2 0.2  9 2 0.2  9.5 2 0.2  10 2 0.2  0 2.5 0.2  0.5 2.5 0.2  1 2.5 0.2  1.5 2.5 0.2  2 2.5 0.2  2.5 2.5 0.2  3 2.5 0.2  3.5 2.5 0.2  4 2.5 0.2  4.5 2.5 0.2  5 2.5 0.2  5.5 2.5 0.2  6 2.5 0.2  6.5 2.5 0.2  7 2.5 0.2  7.5 2.5 0.2  8 2.5 0.2  8.5 2.5 0.2  9 2.5 0.2  9.5 2.5 0.2  10 2.5 0.2  0 3 0.2  0.5 3 0.2  1 3 0.2  1.5 3 0.2  2 3 0.2  2.5 3 0.2  3 3 0.2  3.5 3 0.2  4 3 0.2  4.5 3 0.2  5 3 0.2  5.5 3 0.2  6 3 0.2  6.5 3 0.2  7 3 0.2  7.5 3 0.2  8 3 0.2  8.5 3 0.2  9 3 0.2  9.5 3 0.2  10 3 0.2  0 0 0.3  0.5 0 0.3  1 0 0.3  1.5 0 0.3  2 0 0.3  2.5 0 0.3  3 0 0.3  3.5 0 0.3  4 0 0.3  4.5 0 0.3  5 0 0.3  5.5 0 0.3  6 0 0.3  6.5 0 0.3  7 0 0.3  7.5 0 0.3  8 0 0.3  8.5 0 0.3  9 0 0.3  9.5 0 0.3  10 0 0.3  0 0.5 0.3  0.5 0.5 0.3  1 0.5 0.3  1.5 0.5 0.3  2 0.5 0.3  2.5 0.5 0.3  3 0.5 0.3  3.5 0.5 0.3  4 0.5 0.3  4.5 0.5 0.3  5 0.5 0.3  5.5 0.5 0.3  6 0.5 0.3  6.5 0.5 0.3  7 0.5 0.3  7.5 0.5 0.3  8 0.5 0.3  8.5 0.5 0.3  9 0.5 0.3  9.5 0.5 0.3  10 0.5 0.3  0 1 0.3  0.5 1 0.3  1 1 0.3  1.5 1 0.3  2 1 0.3  2.5 1 0.3  3 1 0.3  3.5 1 0.3  4 1 0.3  4.5 1 0.3  5 1 0.3  5.5 1 0.3  6 1 0.3  6.5 1 0.3  7 1 0.3  7.5 1 0.3  8 1 0.3  8.5 1 0.3  9 1 0.3  9.5 1 0.3  10 1 0.3  0 1.5 0.3  0.5 1.5 0.3  1 1.5 0.3  1.5 1.5 0.3  2 1.5 0.3  2.5 1.5 0.3  3 1.5 0.3  3.5 1.5 0.3  4 1.5 0.3  4.5 1.5 0.3  5 1.5 0.3  5.5 1.5 0.3  6 1.5 0.3  6.5 1.5 0.3  7 1.5 0.3  7.5 1.5 0.3  8 1.5 0.3  8.5 1.5 0.3  9 1.5 0.3  9.5 1.5 0.3  10 1.5 0.3  0 2 0.3  0.5 2 0.3  1 2 0.3  1.5 2 0.3  2 2 0.3  2.5 2 0.3  3 2 0.3  3.5 2 0.3  4 2 0.3  4.5 2 0.3  5 2 0.3  5.5 2 0.3  6 2 0.3  6.5 2 0.3  7 2 0.3  7.5 2 0.3  8 2 0.3  8.5 2 0.3  9 2 0.3  9.5 2 0.3  10 2 0.3  0 2.5 0.3  0.5 2.5 0.3  1 2.5 0.3  1.5 2.5 0.3  2 2.5 0.3  2.5 2.5 0.3  3 2.5 0.3  3.5 2.5 0.3  4 2.5 0.3  4.5 2.5 0.3  5 2.5 0.3  5.5 2.5 0.3  6 2.5 0.3  6.5 2.5 0.3  7 2.5 0.3  7.5 2.5 0.3  8 2.5 0.3  8.5 2.5 0.3  9 2.5 0.3  9.5 2.5 0.3  10 2.5 0.3  0 3 0.3  0.5 3 0.3  1 3 0.3  1.5 3 0.3  2 3 0.3  2.5 3 0.3  3 3 0.3  3.5 3 0.3  4 3 0.3  4.5 3 0.3  5 3 0.3  5.5 3 0.3  6 3 0.3  6.5 3 0.3  7 3 0.3  7.5 3 0.3  8 3 0.3  8.5 3 0.3  9 3 0.3  9.5 3 0.3  10 3 0.3  0 0 0.4  0.5 0 0.4  1 0 0.4  1.5 0 0.4  2 0 0.4  2.5 0 0.4  3 0 0.4  3.5 0 0.4  4 0 0.4  4.5 0 0.4  5 0 0.4  5.5 0 0.4  6 0 0.4  6.5 0 0.4  7 0 0.4  7.5 0 0.4  8 0 0.4  8.5 0 0.4  9 0 0.4  9.5 0 0.4  10 0 0.4  0 0.5 0.4  0.5 0.5 0.4  1 0.5 0.4  1.5 0.5 0.4  2 0.5 0.4  2.5 0.5 0.4  3 0.5 0.4  3.5 0.5 0.4  4 0.5 0.4  4.5 0.5 0.4  5 0.5 0.4  5.5 0.5 0.4  6 0.5 0.4  6.5 0.5 0.4  7 0.5 0.4  7.5 0.5 0.4  8 0.5 0.4  8.5 0.5 0.4  9 0.5 0.4  9.5 0.5 0.4  10 0.5 0.4  0 1 0.4  0.5 1 0.4  1 1 0.4  1.5 1 0.4  2 1 0.4  2.5 1 0.4  3 1 0.4  3.5 1 0.4  4 1 0.4  4.5 1 0.4  5 1 0.4  5.5 1 0.4  6 1 0.4  6.5 1 0.4  7 1 0.4  7.5 1 0.4  8 1 0.4  8.5 1 0.4  9 1 0.4  9.5 1 0.4  10 1 0.4  0 1.5 0.4  0.5 1.5 0.4  1 1.5 0.4  1.5 1.5 0.4  2 1.5 0.4  2.5 1.5 0.4  3 1.5 0.4  3.5 1.5 0.4  4 1.5 0.4  4.5 1.5 0.4  5 1.5 0.4  5.5 1.5 0.4  6 1.5 0.4  6.5 1.5 0.4  7 1.5 0.4  7.5 1.5 0.4  8 1.5 0.4  8.5 1.5 0.4  9 1.5 0.4  9.5 1.5 0.4  10 1.5 0.4  0 2 0.4  0.5 2 0.4  1 2 0.4  1.5 2 0.4  2 2 0.4  2.5 2 0.4  3 2 0.4  3.5 2 0.4  4 2 0.4  4.5 2 0.4  5 2 0.4  5.5 2 0.4  6 2 0.4  6.5 2 0.4  7 2 0.4  7.5 2 0.4  8 2 0.4  8.5 2 0.4  9 2 0.4  9.5 2 0.4  10 2 0.4  0 2.5 0.4  0.5 2.5 0.4  1 2.5 0.4  1.5 2.5 0.4  2 2.5 0.4  2.5 2.5 0.4  3 2.5 0.4  3.5 2.5 0.4  4 2.5 0.4  4.5 2.5 0.4  5 2.5 0.4  5.5 2.5 0.4  6 2.5 0.4  6.5 2.5 0.4  7 2.5 0.4  7.5 2.5 0.4  8 2.5 0.4  8.5 2.5 0.4  9 2.5 0.4  9.5 2.5 0.4  10 2.5 0.4  0 3 0.4  0.5 3 0.4  1 3 0.4  1.5 3 0.4  2 3 0.4  2.5 3 0.4  3 3 0.4  3.5 3 0.4  4 3 0.4  4.5 3 0.4  5 3 0.4  5.5 3 0.4  6 3 0.4  6.5 3 0.4  7 3 0.4  7.5 3 0.4  8 3 0.4  8.5 3 0.4  9 3 0.4  9.5 3 0.4  10 3 0.4  0 0 0.5  0.5 0 0.5  1 0 0.5  1.5 0 0.5  2 0 0.5  2.5 0 0.5  3 0 0.5  3.5 0 0.5  4 0 0.5  4.5 0 0.5  5 0 0.5  5.5 0 0.5  6 0 0.5  6.5 0 0.5  7 0 0.5  7.5 0 0.5  8 0 0.5  8.5 0 0.5  9 0 0.5  9.5 0 0.5  10 0 0.5  0 0.5 0.5  0.5 0.5 0.5  1 0.5 0.5  1.5 0.5 0.5  2 0.5 0.5  2.5 0.5 0.5  3 0.5 0.5  3.5 0.5 0.5  4 0.5 0.5  4.5 0.5 0.5  5 0.5 0.5  5.5 0.5 0.5  6 0.5 0.5  6.5 0.5 0.5  7 0.5 0.5  7.5 0.5 0.5  8 0.5 0.5  8.5 0.5 0.5  9 0.5 0.5  9.5 0.5 0.5  10 0.5 0.5  0 1 0.5  0.5 1 0.5  1 1 0.5  1.5 1 0.5  2 1 0.5  2.5 1 0.5  3 1 0.5  3.5 1 0.5  4 1 0.5  4.5 1 0.5  5 1 0.5  5.5 1 0.5  6 1 0.5  6.5 1 0.5  7 1 0.5  7.5 1 0.5  8 1 0.5  8.5 1 0.5  9 1 0.5  9.5 1 0.5  10 1 0.5  0 1.5 0.5  0.5 1.5 0.5  1 1.5 0.5  1.5 1.5 0.5  2 1.5 0.5  2.5 1.5 0.5  3 1.5 0.5  3.5 1.5 0.5  4 1.5 0.5  4.5 1.5 0.5  5 1.5 0.5  5.5 1.5 0.5  6 1.5 0.5  6.5 1.5 0.5  7 1.5 0.5  7.5 1.5 0.5  8 1.5 0.5  8.5 1.5 0.5  9 1.5 0.5  9.5 1.5 0.5  10 1.5 0.5  0 2 0.5  0.5 2 0.5  1 2 0.5  1.5 2 0.5  2 2 0.5  2.5 2 0.5  3 2 0.5  3.5 2 0.5  4 2 0.5  4.5 2 0.5  5 2 0.5  5.5 2 0.5  6 2 0.5  6.5 2 0.5  7 2 0.5  7.5 2 0.5  8 2 0.5  8.5 2 0.5  9 2 0.5  9.5 2 0.5  10 2 0.5  0 2.5 0.5  0.5 2.5 0.5  1 2.5 0.5  1.5 2.5 0.5  2 2.5 0.5  2.5 2.5 0.5  3 2.5 0.5  3.5 2.5 0.5  4 2.5 0.5  4.5 2.5 0.5  5 2.5 0.5  5.5 2.5 0.5  6 2.5 0.5  6.5 2.5 0.5  7 2.5 0.5  7.5 2.5 0.5  8 2.5 0.5  8.5 2.5 0.5  9 2.5 0.5  9.5 2.5 0.5  10 2.5 0.5  0 3 0.5  0.5 3 0.5  1 3 0.5  1.5 3 0.5  2 3 0.5  2.5 3 0.5  3 3 0.5  3.5 3 0.5  4 3 0.5  4.5 3 0.5  5 3 0.5  5.5 3 0.5  6 3 0.5  6.5 3 0.5  7 3 0.5  7.5 3 0.5  8 3 0.5  8.5 3 0.5  9 3 0.5  9.5 3 0.5  10 3 0.5  </DataArray>
</Points>
<Cells>
[...]
<PointData  Vectors="f_7-0"> 
<DataArray  type="Float64"  Name="f_7-0"  NumberOfComponents="3" format="ascii">0.0000000000000000e+00 0.0000000000000000e+00 0.0000000000000000e+00  2.3837000115136855e-01 2.7005900531919252e-01 2.9130552071348563e-02  4.4633825713221059e-01 5.1838114933741497e-01 3.4240524581280664e-02  7.0971172650757375e-01 7.2866928236041439e-01 2.3055763317722997e-02  1.1040428419162356e+00 8.0030543295626622e-01 1.2099891810489646e-02  1.5387905216494868e+00 8.0125830297399403e-01 2.3588350002277463e-03  1.9797629331614077e+00 7.9296755792935114e-01 -4.0166877243879407e-05  2.4179885773655765e+00 7.9197840830070254e-01 9.9916818608769163e-04  2.8546052822755850e+00 7.9397570342106749e-01 1.7847697785416581e-03  3.2912297967995765e+00 7.9545713035714027e-01 1.8828082851681763e-03  3.7282227164009547e+00 7.9596741647634339e-01 1.7714485981800553e-03  4.1654017414224604e+00 7.9604915956881905e-01 1.7066242244508007e-03  4.6026015442615584e+00 7.9607427236272543e-01 1.7069166492249504e-03  5.0397814032722081e+00 7.9611940585570917e-01 1.7266039738437296e-03  5.4769526887810205e+00 7.9616003554968273e-01 1.7411824946858953e-03  5.9141257015935391e+00 7.9618152497638794e-01 1.7486147544416156e-03  6.3513011875477572e+00 7.9618898342341116e-01 1.7528708765275961e-03  6.7884769669654004e+00 7.9619079476393095e-01 1.7561487888526307e-03  7.2256519343664953e+00 7.9619124464338953e-01 1.7587054882521264e-03  7.6628261570823435e+00 7.9619145285675264e-01 1.7603060818097681e-03  8.1000000000000032e+00 7.9619146118932216e-01 1.7608722300846641e-03  0.0000000000000000e+00 0.0000000000000000e+00 0.0000000000000000e+00  1.0572814408453114e-01 1.0199340229366427e-01 3.3799427298660402e-02  3.2835276263143776e-01 3.8269024326667050e-01 3.3177076577648200e-02  6.7785317086209040e-01 5.2991823494520807e-01 1.6879080317259740e-02  1.1015071321893855e+00 5.6267355698716193e-01 1.3482719725058196e-03  1.5417470848912178e+00 5.5492978861288034e-01 -3.1582756751401299e-03  1.9805107532310486e+00 5.4954113552931971e-01 -6.4346417800197823e-04  2.4174280857264070e+00 5.5058455301933806e-01 2.2721471328301764e-04  2.8540793393833161e+00 5.5275217445935354e-01 -1.4975235744843532e-06  3.2910225395608093e+00 5.5386646584890631e-01 -2.6084292589759298e-04  3.7281845789430594e+00 5.5415600448921021e-01 -3.8656839051307528e-04  4.1653945704332784e+00 5.5420366969704915e-01 -4.1682399948819498e-04  4.6025878144868537e+00 5.5425143298913737e-01 -4.2360640215003488e-04  5.0397670861081876e+00 5.5430981444620742e-01 -4.3327535552582460e-04  5.4769441455945618e+00 5.5435087048401421e-01 -4.4445258646747199e-04  5.9141222269997371e+00 5.5437050586961178e-01 -4.5287029572316337e-04  6.3513000435758471e+00 5.5437803479813552e-01 -4.5796447429426407e-04  6.7884765223557553e+00 5.5438110217876990e-01 -4.6095589656910686e-04  7.2256516884140112e+00 5.5438271680102580e-01 -4.6280079080961465e-04  7.6628260275189426e+00 5.5438356659806509e-01 -4.6387761524027514e-04  8.1000000000000032e+00 5.5438388909465730e-01 -4.6416071807348736e-04  0.0000000000000000e+00 0.0000000000000000e+00 0.0000000000000000e+00  2.0817838590133857e-02 1.7616569657114230e-02 2.9989670117016184e-02  2.5987822116818599e-01 2.2145949204687956e-01 1.6889246124983180e-02  6.5976155955312055e-01 3.0251930250571274e-01 3.8434697303595475e-03  1.1020678495059282e+00 3.1439519086298301e-01 -1.0679702239458723e-02  1.5437082816781353e+00 3.0964345502607404e-01 -5.2128934582637834e-03  1.9806604329257305e+00 3.0806504466581519e-01 -1.0686178930450116e-03  2.4168449789903064e+00 3.0952951202621726e-01 -1.3816165362112100e-03  2.8536458591213303e+00 3.1121425544777137e-01 -2.1313085918453177e-03  3.2908691767658653e+00 3.1202785277528633e-01 -2.4978012115421337e-03  3.7281524788594682e+00 3.1227081893113257e-01 -2.5772918244990053e-03  4.1653796786085557e+00 3.1235687003184243e-01 -2.5805149271204246e-03  4.6025695559964026e+00 3.1243044861600061e-01 -2.5992699828420412e-03  5.0397519637284605e+00 3.1249371620132765e-01 -2.6297443212066475e-03  5.4769355863816980e+00 3.1253409169959162e-01 -2.6554950733025662e-03  5.9141183638900925e+00 3.1255485220643969e-01 -2.6719942352160585e-03  6.3512983129430536e+00 3.1256491546470910e-01 -2.6820650150771669e-03  6.7884755977126829e+00 3.1257026846036262e-01 -2.6887187223400334e-03  7.2256511616571268e+00 3.1257334795303876e-01 -2.6932203200233070e-03  7.6628257877436043e+00 3.1257495730283641e-01 -2.6958597012797388e-03  8.1000000000000032e+00 3.1257546180769619e-01 -2.6967647971575409e-03  0.0000000000000000e+00 0.0000000000000000e+00 0.0000000000000000e+00  -3.7040952473173646e-03 2.2982184316111563e-02 2.9640636450174673e-02  2.1869050341301904e-01 1.3837075032704071e-02 2.4370801284832776e-02  6.5243328583047022e-01 5.2671846342446295e-02 -1.8533471083118477e-02  1.1021739147427116e+00 6.1203806514370095e-02 -1.4653993602654848e-02  1.5436906679042703e+00 6.5537342465208495e-02 -5.0191158737135375e-03  1.9804235693632199e+00 6.7557059305057413e-02 -3.0112578327970109e-03  2.4164372794709501e+00 6.8602779658278532e-02 -3.5345341903192892e-03  2.8533600458323769e+00 6.9437405234352545e-02 -4.4039390815041385e-03  3.2907411696434616e+00 7.0008194897304948e-02 -4.7776312308372053e-03  3.7281010303893907e+00 7.0329603033335505e-02 -4.8093866175901653e-03  4.1653505237029416e+00 7.0504312363641547e-02 -4.7990801421312571e-03  4.6025478541890017e+00 7.0606757757380845e-02 -4.8231065966039899e-03  5.0397370724563633e+00 7.0670841892942010e-02 -4.8605789980040726e-03  5.4769267822948633e+00 7.0711032032265683e-02 -4.8900661116956711e-03  5.9141135569726657e+00 7.0735520245470668e-02 -4.9082783881332663e-03  6.3512956594665457e+00 7.0750030642974818e-02 -4.9195745835353593e-03  6.7884740699736721e+00 7.0758502614025248e-02 -4.9273130248825570e-03  7.2256503089457365e+00 7.0763334844124129e-02 -4.9326390309058143e-03  7.6628254027768161e+00 7.0765811688353858e-02 -4.9357924442394226e-03  8.1000000000000032e+00 7.0766583719791706e-02 -4.9368266168192043e-03  0.0000000000000000e+00 0.0000000000000000e+00 0.0000000000000000e+00  3.0336338043055893e-02 4.6283658935301645e-03 3.2314753591076391e-02  2.4241740274824797e-01 -1.5302797764207740e-01 3.0265218409488488e-02  6.5050156725393449e-01 -2.1113721509692326e-01 -2.3223889116222876e-02  1.0989828314734313e+00 -1.9247351200990412e-01 -1.2390637507616134e-02  1.5419709827718970e+00 -1.7884484122934577e-01 -7.6667092592761108e-03  1.9797746566310226e+00 -1.7332363425503616e-01 -6.0169894367612204e-03  2.4162951761199474e+00 -1.7240102067942706e-01 -6.0825924333252519e-03  2.8532465260117172e+00 -1.7242020784434722e-01 -6.7686728929117852e-03  3.2906192167710162e+00 -1.7209021384816220e-01 -7.0809926197292943e-03  3.7280148199416825e+00 -1.7165760424848309e-01 -7.1022347768991386e-03  4.1653023710226513e+00 -1.7137067770900363e-01 -7.0840719581523760e-03  4.6025226244673254e+00 -1.7122894028231120e-01 -7.0974788213505058e-03  5.0397225141625253e+00 -1.7115965256248683e-01 -7.1254967984373981e-03  5.4769173418729684e+00 -1.7111707548839836e-01 -7.1483232182089212e-03  5.9141073727773996e+00 -1.7108704096843658e-01 -7.1624866120986140e-03  6.3512918296744170e+00 -1.7106683596684760e-01 -7.1712566030503640e-03  6.7884718355052804e+00 -1.7105448226225739e-01 -7.1772780258511091e-03  7.2256490876133652e+00 -1.7104748918266113e-01 -7.1814671519880467e-03  7.6628248708774427e+00 -1.7104392085909384e-01 -7.1839527829029226e-03  8.1000000000000032e+00 -1.7104285402213928e-01 -7.1847419744936504e-03  0.0000000000000000e+00 0.0000000000000000e+00 0.0000000000000000e+00  9.7875248336080439e-02 -6.5179951405281142e-02 3.6647517748182201e-02  3.4602972133978421e-01 -3.1317488426094087e-01 1.5685476863883697e-02  6.5632885619548442e-01 -4.4887366243442950e-01 7.1189372087014022e-03  1.0938715466622033e+00 -4.4591268920911536e-01 -1.5844388137959877e-02  1.5384122495544996e+00 -4.2548305171647965e-01 -1.1541698902409881e-02  1.9786602948456045e+00 -4.1563760669377348e-01 -9.6284838349053620e-03  2.4162939543156434e+00 -4.1379374145312997e-01 -9.1026416403913873e-03  2.8532839975872091e+00 -4.1419407909781225e-01 -9.2209916812055950e-03  3.2905124925300253e+00 -4.1414864498758330e-01 -9.4158999935268911e-03  3.7278945939987711e+00 -4.1368200071522016e-01 -9.4586517292998742e-03  4.1652319910298115e+00 -4.1328833136296117e-01 -9.4341026798156133e-03  4.6024909480623393e+00 -4.1308752438266610e-01 -9.4205573060753712e-03  5.0397067474343160e+00 -4.1299887516215711e-01 -9.4230002754614999e-03  5.4769066700720632e+00 -4.1294900404845286e-01 -9.4294210428067984e-03  5.9140995358680986e+00 -4.1291242243622917e-01 -9.4340229005873306e-03  6.3512866169948197e+00 -4.1288597178771475e-01 -9.4365591688627543e-03  6.7884687357618168e+00 -4.1286903663067237e-01 -9.4381165865811620e-03  7.2256474087162710e+00 -4.1285930835885359e-01 -9.4392415610517651e-03  7.6628241342689858e+00 -4.1285437353441495e-01 -9.4399848032428336e-03  8.1000000000000032e+00 -4.1285289113204926e-01 -9.4403082850361732e-03  0.0000000000000000e+00 0.0000000000000000e+00 0.0000000000000000e+00  2.2601315568764180e-01 -2.4733788655205499e-01 1.8678824306928278e-02  4.6261577313364433e-01 -4.5754238047476503e-01 1.5805633079189915e-02  6.9678092233465716e-01 -6.3195669015246736e-01 2.9383656774331395e-02  1.0886414425389190e+00 -6.9607798097262852e-01 -1.2679291746199766e-02  1.5335332952545295e+00 -6.7481737652416574e-01 -1.6931755067967420e-02  1.9768346680910123e+00 -6.6037786155358880e-01 -1.4010603876269073e-02  2.4161262022192176e+00 -6.5596666684787786e-01 -1.2526737258948440e-02  2.8534039419456358e+00 -6.5584669388856509e-01 -1.1851711003399896e-02  3.2904494124662373e+00 -6.5606985162526077e-01 -1.1824739494645064e-02  3.7277579798433367e+00 -6.5571971268961504e-01 -1.1876296220061616e-02  4.1651380049982984e+00 -6.5526088256970227e-01 -1.1846601301757381e-02  4.6024470343947046e+00 -6.5497922316031576e-01 -1.1792931097441834e-02  5.0396865955039027e+00 -6.5484909744480935e-01 -1.1755020928579473e-02  5.4768939315331515e+00 -6.5478394687456110e-01 -1.1734831521139773e-02  5.9140899149290513e+00 -6.5473989573601632e-01 -1.1723537326719827e-02  6.3512798764554690e+00 -6.5470720375000879e-01 -1.1715720513843829e-02  6.7884645824803957e+00 -6.5468515306941277e-01 -1.1709947087179070e-02  7.2256451303329001e+00 -6.5467205843893983e-01 -1.1706062223124777e-02  7.6628231308675243e+00 -6.5466538829328846e-01 -1.1703944129799835e-02  8.1000000000000032e+00 -6.5466325330594100e-01 -1.1703271485521211e-02  0.0000000000000000e+00 0.0000000000000000e+00 0.0000000000000000e+00  2.3934159263666302e-01 2.7193234847736264e-01 2.0448938215473719e-02  4.5109521360531185e-01 5.1881898631111967e-01 1.8829986038678241e-02  7.1340208346389422e-01 7.2724263965337788e-01 1.3629786102893827e-02  1.1030993207841384e+00 8.0331012630878740e-01 1.0818399617370583e-02  1.5376363455877884e+00 8.0443092642863978e-01 4.1468874404915427e-03  1.9798289926212693e+00 7.9372912808190199e-01 1.3675935842078595e-03  2.4184063873219155e+00 7.9216300093665515e-01 1.6875502143470604e-03  2.8548190514430991e+00 7.9454237510972814e-01 2.3903376974922902e-03  3.2913052397712526e+00 7.9624812598170991e-01 2.5975265033449666e-03  3.7282603544903807e+00 7.9680189309555716e-01 2.5554587899246973e-03  4.1654354655675139e+00 7.9687640494557943e-01 2.5057349125022408e-03  4.6026317980845244e+00 7.9690172080187582e-01 2.5018068284800811e-03  5.0398041818478543e+00 7.9695762462556086e-01 2.5185461405722040e-03  5.4769680773789924e+00 7.9700973402398934e-01 2.5337410954656115e-03  5.9141359413888752e+00 7.9703892051872804e-01 2.5424786293514333e-03  6.3513081717279674e+00 7.9705086748437448e-01 2.5473461576576506e-03  6.7884816890331967e+00 7.9705549421118149e-01 2.5506978448779165e-03  7.2256548619132115e+00 7.9705784557130066e-01 2.5531795564549217e-03  7.6628275429588619e+00 7.9705920280651921e-01 2.5547507200466301e-03  8.1000000000000032e+00 7.9705970422775896e-01 2.5553078946564649e-03  0.0000000000000000e+00 0.0000000000000000e+00 0.0000000000000000e+00  1.1125741518901054e-01 1.0844782205153404e-01 2.0712721511287245e-02  3.3423603852284595e-01 3.8371651314994321e-01 2.0207638607350909e-02  6.7913253619864322e-01 5.3187657740083760e-01 1.1994016919623389e-02  1.1004056420203017e+00 5.6693560077539218e-01 2.4812424618435472e-03  1.5414890455568317e+00 5.5637100484462643e-01 -1.1068845778051449e-03  1.9809721893563570e+00 5.4957731256365039e-01 2.6901390589896383e-04  2.4177297108374871e+00 5.5100591339145266e-01 8.2896614452849452e-04  2.8541981412503832e+00 5.5352035391282406e-01 6.8828131528399434e-04  3.2910768663865748e+00 5.5472123072903723e-01 5.1518996150411308e-04  3.7282263930376631e+00 5.5500052302287151e-01 4.1862884337600764e-04  4.1654313297960472e+00 5.5503728105195860e-01 3.8543112957714756e-04  4.6026161632763163e+00 5.5509041854183661e-01 3.7245902627289950e-04  5.0397866156198488e+00 5.5515966782582438e-01 3.6127569837681985e-04  5.4769571995582282e+00 5.5520902134403372e-01 3.5072296021139123e-04  5.9141311678385060e+00 5.5523343724582908e-01 3.4271938952332024e-04  6.3513062610264353e+00 5.5524380051384814e-01 3.3749692385823303e-04  6.7884807121838859e+00 5.5524883786082113e-01 3.3421421682351606e-04  7.2256542556914809e+00 5.5525185564074431e-01 3.3215602207160221e-04  7.6628272344780370e+00 5.5525356142457527e-01 3.3099187340252960e-04  8.1000000000000032e+00 5.5525410898831151e-01 3.3063361040980836e-04  0.0000000000000000e+00 0.0000000000000000e+00 0.0000000000000000e+00  2.0476518689844857e-02 1.7118052547095607e-02 1.6039412487246354e-02  2.6499012533016436e-01 2.2598797429891615e-01 1.0192151395709564e-02  6.5968244971393786e-01 3.0802378854947016e-01 3.1012848633018225e-03  1.1018860621074225e+00 3.1727800143308660e-01 -6.6096615756495039e-03  1.5445466190530841e+00 3.0956870857295593e-01 -3.5711596758548456e-03  1.9811548813798840e+00 3.0830625226848035e-01 -6.6631576092499793e-04  2.4170090244906119e+00 3.1024309305036618e-01 -8.0869247947713569e-04  2.8537129094478688e+00 3.1209639189655081e-01 -1.3667690511376153e-03  3.2909228509368278e+00 3.1291149352690983e-01 -1.6713926729839095e-03  3.7282018888159532e+00 3.1312909467799643e-01 -1.7592937592978426e-03  4.1654182507691155e+00 3.1320819795162846e-01 -1.7796519197286521e-03  4.6025958122220478e+00 3.1328752342737293e-01 -1.8040723255334336e-03  5.0397691964991438e+00 3.1335753923023157e-01 -1.8339726459340373e-03  5.4769473164505369e+00 3.1340179488022524e-01 -1.8588909410180263e-03  5.9141266360683558e+00 3.1342446396457507e-01 -1.8756215870512657e-03  6.3513040996326149e+00 3.1343574686429126e-01 -1.8863097674362936e-03  6.7884794558304700e+00 3.1344206720492407e-01 -1.8934319203414770e-03  7.2256534956599570e+00 3.1344586257168927e-01 -1.8981809803812477e-03  7.6628268801234576e+00 3.1344789785130722e-01 -1.9009407344125308e-03  8.1000000000000032e+00 3.1344853443354798e-01 -1.9018582103019800e-03  0.0000000000000000e+00 0.0000000000000000e+00 0.0000000000000000e+00  3.3289071730570633e-04 1.9141362273208912e-02 1.7433051976425924e-02  2.1757945716851171e-01 1.3810945411100905e-02 1.3000140616161084e-02  6.5276843128962803e-01 5.8142679748609941e-02 -1.1086849266871587e-02  1.1040601334099640e+00 6.0829539415283435e-02 -1.0276682912764895e-02  1.5447738034013885e+00 6.5740127971554235e-02 -4.0959558596839959e-03  1.9808072468658193e+00 6.8318209872572380e-02 -2.6033155413927073e-03  2.4165387182399138e+00 6.9538937937409173e-02 -2.9534237714605093e-03  2.8534144297471120e+00 7.0360690206199339e-02 -3.6018349371923671e-03  3.2908025762213202e+00 7.0903717707182679e-02 -3.9229920651764182e-03  3.7281561129860474e+00 7.1208524855975439e-02 -3.9835343150510091e-03  4.1653894993829246e+00 7.1380108045481686e-02 -3.9970871376661405e-03  4.6025728002996358e+00 7.1483804354237568e-02 -4.0269435713770167e-03  5.0397534061515472e+00 7.1548319305885302e-02 -4.0634884789457352e-03  5.4769381912272657e+00 7.1588002098346801e-02 -4.0924566895993329e-03  5.9141217090396454e+00 7.1611958473496176e-02 -4.1113821763414729e-03  6.3513013369852001e+00 7.1626211068573128e-02 -4.1235941111864606e-03  6.7884778217193134e+00 7.1634595045542440e-02 -4.1319238577155531e-03  7.2256525647732843e+00 7.1639389620069605e-02 -4.1375475830645230e-03  7.6628264603792031e+00 7.1641848408937600e-02 -4.1408251056304964e-03  8.1000000000000032e+00 7.1642609337108004e-02 -4.1418801638022466e-03  0.0000000000000000e+00 0.0000000000000000e+00 0.0000000000000000e+00  3.0554572879317850e-02 1.6018521002498815e-03 1.7616433497769823e-02  2.4262398316401232e-01 -1.4859194475543830e-01 1.6799664497729048e-02  6.5346090650613708e-01 -2.1649452677966968e-01 -1.6164599154610933e-02  1.1012739397055331e+00 -1.9182096137639634e-01 -9.3652813708798490e-03  1.5428957679365767e+00 -1.7792711147402177e-01 -6.3514904835548615e-03  1.9801041060175242e+00 -1.7208061898134441e-01 -5.3637871474637184e-03  2.4164053393997316e+00 -1.7130824507757622e-01 -5.4580683919084032e-03  2.8533151381247377e+00 -1.7147406508721916e-01 -5.9683507429404920e-03  3.2906878390598044e+00 -1.7118323232235388e-01 -6.2243825266263715e-03  3.7280723622598138e+00 -1.7075237436232835e-01 -6.2690611039343050e-03  4.1653417057685349e+00 -1.7046752214500260e-01 -6.2755610743306716e-03  4.6025478833208888e+00 -1.7033185772306791e-01 -6.2975928384122661e-03  5.0397394262652178e+00 -1.7026902908299554e-01 -6.3266346822071244e-03  5.4769292836603496e+00 -1.7023100695346463e-01 -6.3497781621734391e-03  5.9141158726728102e+00 -1.7020371325049805e-01 -6.3649446232363436e-03  6.3512977139397888e+00 -1.7018523195610846e-01 -6.3747947374488403e-03  6.7884757163380991e+00 -1.7017406875601693e-01 -6.3815509546589540e-03  7.2256514281347428e+00 -1.7016788425519958e-01 -6.3861321077212313e-03  7.6628259634524944e+00 -1.7016479793051933e-01 -6.3888260761770848e-03  8.1000000000000032e+00 -1.7016386265265959e-01 -6.3897188984501120e-03  0.0000000000000000e+00 0.0000000000000000e+00 0.0000000000000000e+00  1.0034183038218854e-01 -6.4686730910699611e-02 1.9992767542097709e-02  3.4939730740735575e-01 -3.1561225958048411e-01 7.0435523927384145e-03  6.5755654189851542e-01 -4.5350492953055349e-01 1.9750345953245016e-03  1.0954997014307635e+00 -4.4554778443532006e-01 -1.2004018074462646e-02  1.5393453721329229e+00 -4.2351205375197287e-01 -9.7067614905968908e-03  1.9789841772520476e+00 -4.1408928981869675e-01 -8.5657538495945845e-03  2.4164663044434556e+00 -4.1256727699738327e-01 -8.3572628591179528e-03  2.8533857734992969e+00 -4.1320347763425935e-01 -8.4566419213406695e-03  3.2905867712050356e+00 -4.1322071352164258e-01 -8.5831625253252001e-03  3.7279520023084092e+00 -4.1274943207038894e-01 -8.6210275092306072e-03  4.1652727290201668e+00 -4.1235878195930276e-01 -8.6158104425970473e-03  4.6025185801400044e+00 -4.1217139826820753e-01 -8.6155192495029950e-03  5.0397257074660509e+00 -4.1209550122441818e-01 -8.6228411719375866e-03  5.4769199466712992e+00 -4.1205395197301475e-01 -8.6307690879434944e-03  5.9141088606031218e+00 -4.1202233361058127e-01 -8.6364011033748436e-03  6.3512930531684075e+00 -4.1199912098441804e-01 -8.6399715834057315e-03  6.7884730025040509e+00 -4.1198447985110326e-01 -8.6423401607533205e-03  7.2256499973465562e+00 -4.1197631714730348e-01 -8.6439686534457195e-03  7.6628253471361569e+00 -4.1197228974933731e-01 -8.6449207421408162e-03  8.1000000000000032e+00 -4.1197108786055037e-01 -8.6451924934158146e-03  0.0000000000000000e+00 0.0000000000000000e+00 0.0000000000000000e+00  2.2704913770399371e-01 -2.4418499870309146e-01 1.3444169580452652e-02  4.6799926982523765e-01 -4.6549042733234247e-01 8.2880660664412225e-03  7.0012853606841530e-01 -6.3324614194892459e-01 1.4635267341486432e-02  1.0883729169709362e+00 -6.9811959637166299e-01 -1.0469292604800480e-02  1.5343817791291599e+00 -6.7227498983419598e-01 -1.4163220425694043e-02  1.9772922671329656e+00 -6.5850000470871195e-01 -1.2405347929103498e-02  2.416383