<?xml version="1.0"?>
<VTKFile type="UnstructuredGrid"  version="0.1"  >
<UnstructuredGrid>
<Piece  NumberOfPoints="588" NumberOfCells="2160">
<Points>
<DataArray  type="Float64"  NumberOfComponents="3"  format="ascii">0 0 0  0.5 0 0  1 0 0  1.5 0 0  2 0 0  2.5 0 0  3 0 0  3.5 0 0  4 0 0  4.5 0 0  5 0 0  5.5 0 0  6 0 0  6.5 0 0  7 0 0  7.5 0 0  8 0 0  8.5 0 0  9 0 0  9.5 0 0  10 0 0  0 0.5 0  0.5 0.5 0  1 0.5 0  1.5 0.5 0  2 0.5 0  2.5 0.5 0  3 0.5 0  3.5 0.5 0  4 0.5 0  4.5 0.5 0  5 0.5 0  5.5 0.5 0  6 0.5 0  6.5 0.5 0  7 0.5 0  7.5 0.5 0  8 0.5 0  8.5 0.5 0  9 0.5 0  9.5 0.5 0  10 0.5 0  0 1 0  0.5 1 0  1 1 0  1.5 1 0  2 1 0  2.5 1 0  3 1 0  3.5 1 0  4 1 0  4.5 1 0  5 1 0  5.5 1 0  6 1 0  6.5 1 0  7 1 0  7.5 1 0  8 1 0  8.5 1 0  9 1 0  9.5 1 0  10 1 0  0 1.5 0  0.5 1.5 0  1 1.5 0  1.5 1.5 0  2 1.5 0  2.5 1.5 0  3 1.5 0  3.5 1.5 0  4 1.5 0  4.5 1.5 0  5 1.5 0  5.5 1.5 0  6 1.5 0  6.5 1.5 0  7 1.5 0  7.5 1.5 0  8 1.5 0  8.5 1.5 0  9 1.5 0  9.5 1.5 0  10 1.5 0  0 2 0  0.5 2 0  1 2 0  1.5 2 0  2 2 0  2.5 2 0  3 2 0  3.5 2 0  4 2 0  4.5 2 0  5 2 0  5.5 2 0  6 2 0  6.5 2 0  7 2 0  7.5 2 0  8 2 0  8.5 2 0  9 2 0  9.5 2 0  10 2 0  0 2.5 0  0.5 2.5 0  1 2.5 0  1.5 2.5 0  2 2.5 0  2.5 2.5 0  3 2.5 0  3.5 2.5 0  4 2.5 0  4.5 2.5 0  5 2.5 0  5.5 2.5 0  6 2.5 0  6.5 2.5 0  7 2.5 0  7.5 2.5 0  8 2.5 0  8.5 2.5 0  9 2.5 0  9.5 2.5 0  10 2.5 0  0 3 0  0.5 3 0  1 3 0  1.5 3 0  2 3 0  2.5 3 0  3 3 0  3.5 3 0  4 3 0  4.5 3 0  5 3 0  5.5 3 0  6 3 0  6.5 3 0  7 3 0  7.5 3 0  8 3 0  8.5 3 0  9 3 0  9.5 3 0  10 3 0  0 0 0.1666666666666667  0.5 0 0.1666666666666667  1 0 0.1666666666666667  1.5 0 0.1666666666666667  2 0 0.1666666666666667  2.5 0 0.1666666666666667  3 0 0.1666666666666667  3.5 0 0.1666666666666667  4 0 0.1666666666666667  4.5 0 0.1666666666666667  5 0 0.1666666666666667  5.5 0 0.1666666666666667  6 0 0.1666666666666667  6.5 0 0.1666666666666667  7 0 0.1666666666666667  7.5 0 0.1666666666666667  8 0 0.1666666666666667  8.5 0 0.1666666666666667  9 0 0.1666666666666667  9.5 0 0.1666666666666667  10 0 0.1666666666666667  0 0.5 0.1666666666666667  0.5 0.5 0.1666666666666667  1 0.5 0.1666666666666667  1.5 0.5 0.1666666666666667  2 0.5 0.1666666666666667  2.5 0.5 0.1666666666666667  3 0.5 0.1666666666666667  3.5 0.5 0.1666666666666667  4 0.5 0.1666666666666667  4.5 0.5 0.1666666666666667  5 0.5 0.1666666666666667  5.5 0.5 0.1666666666666667  6 0.5 0.1666666666666667  6.5 0.5 0.1666666666666667  7 0.5 0.1666666666666667  7.5 0.5 0.1666666666666667  8 0.5 0.1666666666666667  8.5 0.5 0.1666666666666667  9 0.5 0.1666666666666667  9.5 0.5 0.1666666666666667  10 0.5 0.1666666666666667  0 1 0.1666666666666667  0.5 1 0.1666666666666667  1 1 0.1666666666666667  1.5 1 0.1666666666666667  2 1 0.1666666666666667  2.5 1 0.1666666666666667  3 1 0.1666666666666667  3.5 1 0.1666666666666667  4 1 0.1666666666666667  4.5 1 0.1666666666666667  5 1 0.1666666666666667  5.5 1 0.1666666666666667  6 1 0.1666666666666667  6.5 1 0.1666666666666667  7 1 0.1666666666666667  7.5 1 0.1666666666666667  8 1 0.1666666666666667  8.5 1 0.1666666666666667  9 1 0.1666666666666667  9.5 1 0.1666666666666667  10 1 0.1666666666666667  0 1.5 0.1666666666666667  0.5 1.5 0.1666666666666667  1 1.5 0.1666666666666667  1.5 1.5 0.1666666666666667  2 1.5 0.1666666666666667  2.5 1.5 0.1666666666666667  3 1.5 0.1666666666666667  3.5 1.5 0.1666666666666667  4 1.5 0.1666666666666667  4.5 1.5 0.1666666666666667  5 1.5 0.1666666666666667  5.5 1.5 0.1666666666666667  6 1.5 0.1666666666666667  6.5 1.5 0.1666666666666667  7 1.5 0.1666666666666667  7.5 1.5 0.1666666666666667  8 1.5 0.1666666666666667  8.5 1.5 0.1666666666666667  9 1.5 0.1666666666666667  9.5 1.5 0.1666666666666667  10 1.5 0.1666666666666667  0 2 0.1666666666666667  0.5 2 0.1666666666666667  1 2 0.1666666666666667  1.5 2 0.1666666666666667  2 2 0.1666666666666667  2.5 2 0.1666666666666667  3 2 0.1666666666666667  3.5 2 0.1666666666666667  4 2 0.1666666666666667  4.5 2 0.1666666666666667  5 2 0.1666666666666667  5.5 2 0.1666666666666667  6 2 0.1666666666666667  6.5 2 0.1666666666666667  7 2 0.1666666666666667  7.5 2 0.1666666666666667  8 2 0.1666666666666667  8.5 2 0.1666666666666667  9 2 0.1666666666666667  9.5 2 0.1666666666666667  10 2 0.1666666666666667  0 2.5 0.1666666666666667  0.5 2.5 0.1666666666666667  1 2.5 0.1666666666666667  1.5 2.5 0.1666666666666667  2 2.5 0.1666666666666667  2.5 2.5 0.1666666666666667  3 2.5 0.1666666666666667  3.5 2.5 0.1666666666666667  4 2.5 0.1666666666666667  4.5 2.5 0.1666666666666667  5 2.5 0.1666666666666667  5.5 2.5 0.1666666666666667  6 2.5 0.1666666666666667  6.5 2.5 0.1666666666666667  7 2.5 0.1666666666666667  7.5 2.5 0.1666666666666667  8 2.5 0.1666666666666667  8.5 2.5 0.1666666666666667  9 2.5 0.1666666666666667  9.5 2.5 0.1666666666666667  10 2.5 0.1666666666666667  0 3 0.1666666666666667  0.5 3 0.1666666666666667  1 3 0.1666666666666667  1.5 3 0.1666666666666667  2 3 0.1666666666666667  2.5 3 0.1666666666666667  3 3 0.1666666666666667  3.5 3 0.1666666666666667  4 3 0.1666666666666667  4.5 3 0.1666666666666667  5 3 0.1666666666666667  5.5 3 0.1666666666666667  6 3 0.1666666666666667  6.5 3 0.1666666666666667  7 3 0.1666666666666667  7.5 3 0.1666666666666667  8 3 0.1666666666666667  8.5 3 0.1666666666666667  9 3 0.1666666666666667  9.5 3 0.1666666666666667  10 3 0.1666666666666667  0 0 0.3333333333333333  0.5 0 0.3333333333333333  1 0 0.3333333333333333  1.5 0 0.3333333333333333  2 0 0.3333333333333333  2.5 0 0.3333333333333333  3 0 0.3333333333333333  3.5 0 0.3333333333333333  4 0 0.3333333333333333  4.5 0 0.3333333333333333  5 0 0.3333333333333333  5.5 0 0.3333333333333333  6 0 0.3333333333333333  6.5 0 0.3333333333333333  7 0 0.3333333333333333  7.5 0 0.3333333333333333  8 0 0.3333333333333333  8.5 0 0.3333333333333333  9 0 0.3333333333333333  9.5 0 0.3333333333333333  10 0 0.3333333333333333  0 0.5 0.3333333333333333  0.5 0.5 0.3333333333333333  1 0.5 0.3333333333333333  1.5 0.5 0.3333333333333333  2 0.5 0.3333333333333333  2.5 0.5 0.3333333333333333  3 0.5 0.3333333333333333  3.5 0.5 0.3333333333333333  4 0.5 0.3333333333333333  4.5 0.5 0.3333333333333333  5 0.5 0.3333333333333333  5.5 0.5 0.3333333333333333  6 0.5 0.3333333333333333  6.5 0.5 0.3333333333333333  7 0.5 0.3333333333333333  7.5 0.5 0.3333333333333333  8 0.5 0.3333333333333333  8.5 0.5 0.3333333333333333  9 0.5 0.3333333333333333  9.5 0.5 0.3333333333333333  10 0.5 0.3333333333333333  0 1 0.3333333333333333  0.5 1 0.3333333333333333  1 1 0.3333333333333333  1.5 1 0.3333333333333333  2 1 0.3333333333333333  2.5 1 0.3333333333333333  3 1 0.3333333333333333  3.5 1 0.3333333333333333  4 1 0.3333333333333333  4.5 1 0.3333333333333333  5 1 0.3333333333333333  5.5 1 0.3333333333333333  6 1 0.3333333333333333  6.5 1 0.3333333333333333  7 1 0.3333333333333333  7.5 1 0.3333333333333333  8 1 0.3333333333333333  8.5 1 0.3333333333333333  9 1 0.3333333333333333  9.5 1 0.3333333333333333  10 1 0.3333333333333333  0 1.5 0.3333333333333333  0.5 1.5 0.3333333333333333  1 1.5 0.3333333333333333  1.5 1.5 0.3333333333333333  2 1.5 0.3333333333333333  2.5 1.5 0.3333333333333333  3 1.5 0.3333333333333333  3.5 1.5 0.3333333333333333  4 1.5 0.3333333333333333  4.5 1.5 0.3333333333333333  5 1.5 0.3333333333333333  5.5 1.5 0.3333333333333333  6 1.5 0.3333333333333333  6.5 1.5 0.3333333333333333  7 1.5 0.3333333333333333  7.5 1.5 0.3333333333333333  8 1.5 0.3333333333333333  8.5 1.5 0.3333333333333333  9 1.5 0.3333333333333333  9.5 1.5 0.3333333333333333  10 1.5 0.3333333333333333  0 2 0.3333333333333333  0.5 2 0.3333333333333333  1 2 0.3333333333333333  1.5 2 0.3333333333333333  2 2 0.3333333333333333  2.5 2 0.3333333333333333  3 2 0.3333333333333333  3.5 2 0.3333333333333333  4 2 0.3333333333333333  4.5 2 0.3333333333333333  5 2 0.3333333333333333  5.5 2 0.3333333333333333  6 2 0.3333333333333333  6.5 2 0.3333333333333333  7 2 0.3333333333333333  7.5 2 0.3333333333333333  8 2 0.3333333333333333  8.5 2 0.3333333333333333  9 2 0.3333333333333333  9.5 2 0.3333333333333333  10 2 0.3333333333333333  0 2.5 0.3333333333333333  0.5 2.5 0.3333333333333333  1 2.5 0.3333333333333333  1.5 2.5 0.3333333333333333  2 2.5 0.3333333333333333  2.5 2.5 0.3333333333333333  3 2.5 0.3333333333333333  3.5 2.5 0.3333333333333333  4 2.5 0.3333333333333333  4.5 2.5 0.3333333333333333  5 2.5 0.3333333333333333  5.5 2.5 0.3333333333333333  6 2.5 0.3333333333333333  6.5 2.5 0.3333333333333333  7 2.5 0.3333333333333333  7.5 2.5 0.3333333333333333  8 2.5 0.3333333333333333  8.5 2.5 0.3333333333333333  9 2.5 0.3333333333333333  9.5 2.5 0.3333333333333333  10 2.5 0.3333333333333333  0 3 0.3333333333333333  0.5 3 0.3333333333333333  1 3 0.3333333333333333  1.5 3 0.3333333333333333  2 3 0.3333333333333333  2.5 3 0.3333333333333333  3 3 0.3333333333333333  3.5 3 0.3333333333333333  4 3 0.3333333333333333  4.5 3 0.3333333333333333  5 3 0.3333333333333333  5.5 3 0.3333333333333333  6 3 0.3333333333333333  6.5 3 0.3333333333333333  7 3 0.3333333333333333  7.5 3 0.3333333333333333  8 3 0.3333333333333333  8.5 3 0.3333333333333333  9 3 0.3333333333333333  9.5 3 0.3333333333333333  10 3 0.3333333333333333  0 0 0.5  0.5 0 0.5  1 0 0.5  1.5 0 0.5  2 0 0.5  2.5 0 0.5  3 0 0.5  3.5 0 0.5  4 0 0.5  4.5 0 0.5  5 0 0.5  5.5 0 0.5  6 0 0.5  6.5 0 0.5  7 0 0.5  7.5 0 0.5  8 0 0.5  8.5 0 0.5  9 0 0.5  9.5 0 0.5  10 0 0.5  0 0.5 0.5  0.5 0.5 0.5  1 0.5 0.5  1.5 0.5 0.5  2 0.5 0.5  2.5 0.5 0.5  3 0.5 0.5  3.5 0.5 0.5  4 0.5 0.5  4.5 0.5 0.5  5 0.5 0.5  5.5 0.5 0.5  6 0.5 0.5  6.5 0.5 0.5  7 0.5 0.5  7.5 0.5 0.5  8 0.5 0.5  8.5 0.5 0.5  9 0.5 0.5  9.5 0.5 0.5  10 0.5 0.5  0 1 0.5  0.5 1 0.5  1 1 0.5  1.5 1 0.5  2 1 0.5  2.5 1 0.5  3 1 0.5  3.5 1 0.5  4 1 0.5  4.5 1 0.5  5 1 0.5  5.5 1 0.5  6 1 0.5  6.5 1 0.5  7 1 0.5  7.5 1 0.5  8 1 0.5  8.5 1 0.5  9 1 0.5  9.5 1 0.5  10 1 0.5  0 1.5 0.5  0.5 1.5 0.5  1 1.5 0.5  1.5 1.5 0.5  2 1.5 0.5  2.5 1.5 0.5  3 1.5 0.5  3.5 1.5 0.5  4 1.5 0.5  4.5 1.5 0.5  5 1.5 0.5  5.5 1.5 0.5  6 1.5 0.5  6.5 1.5 0.5  7 1.5 0.5  7.5 1.5 0.5  8 1.5 0.5  8.
[...]
<PointData  Vectors="f_7-0"> 
<DataArray  type="Float64"  Name="f_7-0"  NumberOfComponents="3" format="ascii">0.0000000000000000e+00 0.0000000000000000e+00 0.0000000000000000e+00  7.3360024272330715e-01 5.4775978212544640e-01 9.7285092626420308e-02  1.8027271062789791e+00 5.9108482464559975e-01 9.8203518193205691e-02  2.8910731000199967e+00 5.9266307314677125e-01 9.8811564449658426e-02  3.9837143135819311e+00 5.9252720354958710e-01 9.8923640145346603e-02  5.0781487978546043e+00 5.9244098223649877e-01 9.8957191436664108e-02  6.1729301453436642e+00 5.9240357823439804e-01 9.8965768881092250e-02  7.2677542748597954e+00 5.9238641925462410e-01 9.8966905503344013e-02  8.3625709624252735e+00 5.9237793870196598e-01 9.8966824338127785e-02  9.4573750327579607e+00 5.9237359330175243e-01 9.8966560852347965e-02  1.0552169661125598e+01 5.9237131951478705e-01 9.8966339274209031e-02  1.1646958467343556e+01 5.9237011169847720e-01 9.8966197296707900e-02  1.2741743940908620e+01 5.9236946485134712e-01 9.8966114377111114e-02  1.3836527562434597e+01 5.9236911718678897e-01 9.8966067547032022e-02  1.4931310169080975e+01 5.9236892997301449e-01 9.8966041596977916e-02  1.6026092223818832e+01 5.9236882909553068e-01 9.8966027390613609e-02  1.7120873979844234e+01 5.9236877481212291e-01 9.8966019676084455e-02  1.8215655575079801e+01 5.9236874579132437e-01 9.8966015529627499e-02  1.9310437084938748e+01 5.9236873064176432e-01 9.8966013357674271e-02  2.0405218551487714e+01 5.9236872343443847e-01 9.8966012323914443e-02  2.1500000000000004e+01 5.9236872131538298e-01 9.8966012004174125e-02  0.0000000000000000e+00 0.0000000000000000e+00 0.0000000000000000e+00  7.1912154399226846e-01 3.5831291127465420e-01 1.0009107730007644e-01  1.7960326264576572e+00 3.9458093622991863e-01 9.9085076635325536e-02  2.8894940385591696e+00 3.9546969839772489e-01 9.9271553142170704e-02  3.9833413611956066e+00 3.9519697989731017e-01 9.9298803940827463e-02  5.0780817292867875e+00 3.9508724869059270e-01 9.9301658664902773e-02  6.1729265101914086e+00 3.9504563226967548e-01 9.9303483222405536e-02  7.2677604703629672e+00 3.9502909315600482e-01 9.9303269862202045e-02  8.3625767262434003e+00 3.9502184189650230e-01 9.9302724456998115e-02  9.4573788318307841e+00 3.9501837287360125e-01 9.9302346897843230e-02  1.0552171895216613e+01 3.9501662811479199e-01 9.9302121994620296e-02  1.1646959723508999e+01 3.9501572235128757e-01 9.9301992869041678e-02  1.2741744633226581e+01 3.9501524330144389e-01 9.9301920587315531e-02  1.3836527940141806e+01 3.9501498748806790e-01 9.9301880855824518e-02  1.4931310374025628e+01 3.9501485019547122e-01 9.9301859202823362e-02  1.6026092334619459e+01 3.9501477634781335e-01 9.9301847452947345e-02  1.7120874039450520e+01 3.9501473664622222e-01 9.9301841104566579e-02  1.8215655606716858e+01 3.9501471543087274e-01 9.9301837703560922e-02  1.9310437100966265e+01 3.9501470435949981e-01 9.9301835925940121e-02  2.0405218558180387e+01 3.9501469908978376e-01 9.9301835085760584e-02  2.1500000000000004e+01 3.9501469754877366e-01 9.9301834840926265e-02  0.0000000000000000e+00 0.0000000000000000e+00 0.0000000000000000e+00  7.0790983974477373e-01 1.7724051746338676e-01 1.0254083951474524e-01  1.7852321336249168e+00 1.9760191694989737e-01 9.9948710364064372e-02  2.8866850714258039e+00 1.9804537507213688e-01 9.9758591101042959e-02  3.9826764950493359e+00 1.9780155904752475e-01 9.9670809790932000e-02  5.0779677280925073e+00 1.9771599495118186e-01 9.9648317409495341e-02  6.1729300176666175e+00 1.9768385093133561e-01 9.9641844974300647e-02  7.2677798203244137e+00 1.9767131720217468e-01 9.9639367727663894e-02  8.3625923203040529e+00 1.9766591337864242e-01 9.9638418510876042e-02  9.4573886556229958e+00 1.9766335451836828e-01 9.9638020068985297e-02  1.0552177576541315e+01 1.9766207845166803e-01 9.9637839706160553e-02  1.1646962895926833e+01 1.9766141869586823e-01 9.9637751539022573e-02  1.2741746375600643e+01 1.9766107055114360e-01 9.9637706588137420e-02  1.3836528889004972e+01 1.9766088484969546e-01 9.9637683223167087e-02  1.4931310888414705e+01 1.9766078523782710e-01 9.9637670884792376e-02  1.6026092612594141e+01 1.9766073167237960e-01 9.9637664307770074e-02  1.7120874188957565e+01 1.9766070287826151e-01 9.9637660792112254e-02  1.8215655686064515e+01 1.9766068749202911e-01 9.9637658921406774e-02  1.9310437141170084e+01 1.9766067946259092e-01 9.9637657948813949e-02  2.0405218574966739e+01 1.9766067563821937e-01 9.9637657499476021e-02  2.1500000000000004e+01 1.9766067451176300e-01 9.9637657365547916e-02  0.0000000000000000e+00 0.0000000000000000e+00 0.0000000000000000e+00  7.0443165046377187e-01 1.2552496183565944e-03 1.0335288433762266e-01  1.7803878955974146e+00 4.8440809853301982e-04 1.0042519705574077e-01  2.8857400069018442e+00 3.9760674762224580e-04 1.0013884681077882e-01  3.9825796097617441e+00 3.4453092210436824e-04 1.0001629823981034e-01  5.0780115545638767e+00 3.3166606223696189e-04 9.9985055293492706e-02  6.1729898654866098e+00 3.2040057054626153e-04 9.9977160301943771e-02  7.2678216063305179e+00 3.1403043241112831e-04 9.9974502756832478e-02  8.3626176058281736e+00 3.1067192749133660e-04 9.9973763736698043e-02  9.4574030321714897e+00 3.0882558814040220e-04 9.9973558289455117e-02  1.0552185536477264e+01 3.0782528184020001e-04 9.9973499803096819e-02  1.1646967250772406e+01 3.0728416845231412e-04 9.9973483428729346e-02  1.2741748742876281e+01 3.0699163825089766e-04 9.9973479577014288e-02  1.3836530171431376e+01 3.0683359433720104e-04 9.9973479009458230e-02  1.4931311581815898e+01 3.0674823809361619e-04 9.9973479142219268e-02  1.6026092986813691e+01 3.0670217315718928e-04 9.9973479351847902e-02  1.7120874390095725e+01 3.0667736354403346e-04 9.9973479509966517e-02  1.8215655792782783e+01 3.0666409228986927e-04 9.9973479610003968e-02  1.9310437195238737e+01 3.0665716146536837e-04 9.9973479669464946e-02  2.0405218597567501e+01 3.0665385397334098e-04 9.9973479712215471e-02  2.1500000000000004e+01 3.0665287451896791e-04 9.9973479720421338e-02  0.0000000000000000e+00 0.0000000000000000e+00 0.0000000000000000e+00  7.0958059858776490e-01 -1.7451235161646678e-01 1.0287067585638393e-01  1.7852671857037281e+00 -1.9666446238282678e-01 1.0061661484396203e-01  2.8878684995752657e+00 -1.9725641862946117e-01 1.0036086044845581e-01  3.9833549029870645e+00 -1.9707949949426262e-01 1.0031695508303164e-01  5.0783025728279991e+00 -1.9704243679831226e-01 1.0030952147275839e-01  6.1731207743912044e+00 -1.9703880275200603e-01 1.0030899964248761e-01  7.2678826421684031e+00 -1.9704070350929431e-01 1.0030858767438591e-01  8.3626482115849861e+00 -1.9704322408852193e-01 1.0030881139432468e-01  9.4574188861054260e+00 -1.9704498815670932e-01 1.0030901306457990e-01  1.0552193906703993e+01 -1.9704604291805164e-01 1.0030913554795141e-01  1.1646971721901036e+01 -1.9704664289598481e-01 1.0030920908869195e-01  1.2741751143153131e+01 -1.9704697534113538e-01 1.0030925128298453e-01  1.3836531463502958e+01 -1.9704715724972777e-01 1.0030927470017878e-01  1.4931312278203107e+01 -1.9704725613525464e-01 1.0030928753361104e-01  1.6026093362027964e+01 -1.9704730968305670e-01 1.0030929452814052e-01  1.7120874591600433e+01 -1.9704733857570680e-01 1.0030929831828510e-01  1.8215655899653321e+01 -1.9704735404665855e-01 1.0030930035386762e-01  1.9310437249379643e+01 -1.9704736213232421e-01 1.0030930142165870e-01  2.0405218620208352e+01 -1.9704736599456862e-01 1.0030930194199235e-01  2.1500000000000004e+01 -1.9704736714117235e-01 1.0030930208944126e-01  0.0000000000000000e+00 0.0000000000000000e+00 0.0000000000000000e+00  7.2721976556327184e-01 -3.5718717161378249e-01 1.0188165687653744e-01  1.7967705621200500e+00 -3.9348012345996181e-01 1.0027109504382845e-01  2.8915710231071445e+00 -3.9453921735686504e-01 1.0044267936781703e-01  3.9845499939130713e+00 -3.9441451229602015e-01 1.0061762604937370e-01  5.0786851991428668e+00 -3.9439232740350233e-01 1.0063131840578290e-01  6.1732608702119975e+00 -3.9438725953855636e-01 1.0063895910000921e-01  7.2679407821122393e+00 -3.9439159583910227e-01 1.0064254258298019e-01  8.3626744923995027e+00 -3.9439554866839016e-01 1.0064388407145436e-01  9.4574316336220452e+00 -3.9439805837951675e-01 1.0064450417841830e-01  1.0552200409301355e+01 -3.9439954559951229e-01 1.0064480258259542e-01  1.1646975128010768e+01 -3.9440038212840778e-01 1.0064495538424195e-01  1.2741752952474945e+01 -3.9440084356726612e-01 1.0064503515688529e-01  1.3836532432291786e+01 -3.9440109551478519e-01 1.0064507726253429e-01  1.4931312798921079e+01 -3.9440123230888674e-01 1.0064509974594525e-01  1.6026093642192826e+01 -3.9440130634767262e-01 1.0064511180707432e-01  1.7120874741952104e+01 -3.9440134628575263e-01 1.0064511827814020e-01  1.8215655979368222e+01 -3.9440136766778516e-01 1.0064512173227316e-01  1.9310437289760795e+01 -3.9440137884192106e-01 1.0064512353469166e-01  2.0405218637100848e+01 -3.9440138418079607e-01 1.0064512440304287e-01  2.1500000000000004e+01 -3.9440138576237854e-01 1.0064512465680638e-01  0.0000000000000000e+00 0.0000000000000000e+00 0.0000000000000000e+00  7.5507504881868126e-01 -5.4649982429808353e-01 9.5559170648576622e-02  1.8030710225644291e+00 -5.8909201464134187e-01 9.9020258281542400e-02  2.8936309091565788e+00 -5.9162339485505633e-01 1.0094505115194638e-01  3.9852079770993365e+00 -5.9170580484142388e-01 1.0094511841799017e-01  5.0788489944340816e+00 -5.9170911872478504e-01 1.0094538953675178e-01  6.1733228755143621e+00 -5.9172806027385505e-01 1.0097281882528854e-01  7.2679668905562345e+00 -5.9174019705555581e-01 1.0097739298386155e-01  8.3626854612442081e+00 -5.9174678844571327e-01 1.0097924876679344e-01  9.4574368734447845e+00 -5.9175068756363569e-01 1.0098014863026537e-01  1.0552203053809896e+01 -5.9175284210660706e-01 1.0098054618590509e-01  1.1646976501268639e+01 -5.9175401835864505e-01 1.0098074163653659e-01  1.2741753678996519e+01 -5.9175465870938937e-01 1.0098083989954094e-01  1.3836532820439324e+01 -5.9175500577283346e-01 1.0098089098077945e-01  1.4931313007323777e+01 -5.9175519355190642e-01 1.0098091797630646e-01  1.6026093754258259e+01 -5.9175529499408808e-01 1.0098093233367438e-01  1.7120874802074280e+01 -5.9175534965940024e-01 1.0098093999959076e-01  1.8215656011240409e+01 -5.9175537891148311e-01 1.0098094408089536e-01  1.9310437305905520e+01 -5.9175539419472289e-01 1.0098094620707290e-01  2.0405218643848826e+01 -5.9175540150024730e-01 1.0098094721877098e-01  2.1500000000000004e+01 -5.9175540363462631e-01 1.0098094753539254e-01  0.0000000000000000e+00 0.0000000000000000e+00 0.0000000000000000e+00  7.3474829985132140e-01 5.4582173306158799e-01 3.2634879136793360e-02  1.8028266775398278e+00 5.9080132830447152e-01 3.2775308850499597e-02  2.8910712500060063e+00 5.9253907963999464e-01 3.3105824378278456e-02  3.9837161204624070e+00 5.9240483895470653e-01 3.3152382078071280e-02  5.0781483991361709e+00 5.9232640939696768e-01 3.3173521894985139e-02  6.1729302038800844e+00 5.9229114153074869e-01 3.3180138354532332e-02  7.2677543287498185e+00 5.9227432086784149e-01 3.3181218473422626e-02  8.3625709667884518e+00 5.9226595887626943e-01 3.3181459234749223e-02  9.4573750337344276e+00 5.9226165173379208e-01 3.3181477737202342e-02  1.0552169662681049e+01 5.9225938385831811e-01 3.3181434838130304e-02  1.1646958468254054e+01 5.9225817510276724e-01 3.3181396203412331e-02  1.2741743941391094e+01 5.9225752676331556e-01 3.3181371127378040e-02  1.3836527562710280e+01 5.9225717793324062e-01 3.3181356111966348e-02  1.4931310169237543e+01 5.9225698996048182e-01 3.3181347492764211e-02  1.6026092223904890e+01 5.9225688863386539e-01 3.3181342679709479e-02  1.7120873979889883e+01 5.9225683409618390e-01 3.3181340035368635e-02  1.8215655575101977e+01 5.9225680493510391e-01 3.3181338603596969e-02  1.9310437084944585e+01 5.9225678971172657e-01 3.3181337850510542e-02  2.0405218551481507e+01 5.9225678246770896e-01 3.3181337489722469e-02  2.1500000000000004e+01 5.9225678032701301e-01 3.3181337372440216e-02  0.0000000000000000e+00 0.0000000000000000e+00 0.0000000000000000e+00  7.2051118488220434e-01 3.5779954623337601e-01 3.4067526430905805e-02  1.7964139148659852e+00 3.9424050088927542e-01 3.3369486774893639e-02  2.8894770224158397e+00 3.9532009357204301e-01 3.3492330127941748e-02  3.9833361258503643e+00 3.9507323325715721e-01 3.3517518248780062e-02  5.0780833445330504e+00 3.9497236719472051e-01 3.3516389360561651e-02  6.1729267952826072e+00 3.9493308505926017e-01 3.3517428382437243e-02  7.2677605047515170e+00 3.9491700899736992e-01 3.3517567829120895e-02  8.3625767330189529e+00 3.9490988593695719e-01 3.3517433458196702e-02  9.4573788371396219e+00 3.9490644682178888e-01 3.3517323388762267e-02  1.0552171897627643e+01 3.9490470167615666e-01 3.3517254038275532e-02  1.1646959724453293e+01 3.9490379104519585e-01 3.3517212761682083e-02  1.2741744633696873e+01 3.9490330814218555e-01 3.3517189070584444e-02  1.3836527940399238e+01 3.9490304983019675e-01 3.3517175862619548e-02  1.4931310374164116e+01 3.9490291104904812e-01 3.3517168605208016e-02  1.6026092334693434e+01 3.9490283635567747e-01 3.3517164645751572e-02  1.7120874039489482e+01 3.9490279618527435e-01 3.3517162498978355e-02  1.8215655606735911e+01 3.9490277471490587e-01 3.3517161346362456e-02  1.9310437100972337e+01 3.9490276350904513e-01 3.3517160743303534e-02  2.0405218558176646e+01 3.9490275817435599e-01 3.3517160458479758e-02  2.1500000000000004e+01 3.9490275660896090e-01 3.3517160375174916e-02  0.0000000000000000e+00 0.0000000000000000e+00 0.0000000000000000e+00  7.0958326432563246e-01 1.7690013195431434e-01 3.4854581218131557e-02  1.7855682968764774e+00 1.9735261196898138e-01 3.4025117020150625e-02  2.8867075571065279e+00 1.9790118378219340e-01 3.3912773053868188e-02  3.9826639569827926e+00 1.9768417018170359e-01 3.3869544250764438e-02  5.0779712717961720e+00 1.9760258498400077e-01 3.3858450128637446e-02  6.1729301016139546e+00 1.9757160550877431e-01 3.3854919029686188e-02  7.2677797950311502e+00 1.9755937665181617e-01 3.3853734619949220e-02  8.3625923314197479e+00 1.9755403017195658e-01 3.3853301818383072e-02  9.4573886587777771e+00 1.9755145998891446e-01 3.3853124909751460e-02  1.0552177575896414e+01 1.9755016677342616e-01 3.3853050561234332e-02  1.1646962895165643e+01 1.9754949492715707e-01 3.3853016810230771e-02  1.2741746375177396e+01 1.9754913928671006e-01 3.3853000353577682e-02  1.3836528888758039e+01 1.9754894922621680e-01 3.3852992083920820e-02  1.4931310888271746e+01 1.9754884716938712e-01 3.3852987826443838e-02  1.6026092612514951e+01 1.9754879225665045e-01 3.3852985593327035e-02  1.7120874188914183e+01 1.9754876272792499e-01 3.3852984411699781e-02  1.8215655686040492e+01 1.9754874694600286e-01 3.3852983787038833e-02  1.9310437141155937e+01 1.9754873870918049e-01 3.3852983464090880e-02  2.0405218574957360e+01 1.9754873478588250e-01 3.3852983315406190e-02  2.1500000000000004e+01 1.9754873363074041e-01 3.3852983270253795e-02  0.0000000000000000e+00 0.0000000000000000e+00 0.0000000000000000e+00  7.0615494270360868e-01 1.1978108268285111e-03 3.5202506214959510e-02  1.7806071982684317e+00 3.3373907510565048e-04 3.4461099839525972e-02  2.8858326077761705e+00 2.9429275724676067e-04 3.4280602883622287e-02  3.9825526601381132e+00 2.3818986810713460e-04 3.4205118275749194e-02  5.0780148501588966e+00 2.2069070509621883e-04 3.4195152883751766e-02  6.1729897578438804e+00 2.0894291243629923e-04 3.4190862391655148e-02  7.2678214857493106e+00 2.0237588165685424e-04 3.4189387485797001e-02  8.3626176087778248e+00 1.9887713254790063e-04 3.4188989540407735e-02  9.4574030252809287e+00 1.9695929542583844e-04 3.4188861525605373e-02  1.0552185531196844e+01 1.9592399401596822e-04 3.4188822196301580e-02  1.1646967248207499e+01 1.9536451722448401e-04 3.4188810329040836e-02  1.2741748741540142e+01 1.9506209929821136e-04 3.4188806936092636e-02  1.3836530170688500e+01 1.9489874703157014e-04 3.4188806095670425e-02  1.4931311581410842e+01 1.9481054242702125e-04 3.4188805956510457e-02  1.6026092986595543e+01 1.9476294419103391e-04 3.4188805983965551e-02  1.7120874389978471e+01 1.9473730964693144e-04 3.4188806033264948e-02  1.8215655792720526e+01 1.9472359765319240e-04 3.4188806071355549e-02  1.9310437195207196e+01 1.9471643697808398e-04 3.4188806096271313e-02  2.0405218597554523e+01 1.9471302099592373e-04 3.4188806112602728e-02  2.1500000000000004e+01 1.9471201237420381e-04 3.4188806115038918e-02  0.0000000000000000e+00 0.0000000000000000e+00 0.0000000000000000e+00  7.1126484424660907e-01 -1.7449647831106774e-01 3.5337128660672970e-02  1.7854703397236966e+00 -1.9667439523237787e-01 3.4764468156304670e-02  2.8879722957319451e+00 -1.9731422185393918e-01 3.4551020333231312e-02  3.9833168227733569e+00 -1.9718285740209671e-01 3.4523047886228578e-02  5.0783058940968777e+00 -1.9715149959165137e-01 3.4526510508881447e-02  6.1731206072340497e+00 -1.9714933933243992e-01 3.4524928650718427e-02  7.2678823911283885e+00 -1.9715219086382468e-01 3.4524484386500277e-02  8.3626482109060607e+00 -1.9715497972593451e-01 3.4524514907872339e-02  9.4574188667553098e+00 -1.9715684485202717e-01 3.4524548073746733e-02  1.0552193898060453e+01 -1.9715794391606656e-01 3.4524578794534466e-02  1.1646971718148635e+01 -1.9715856384835856e-01 3.4524599747984337e-02  1.2741751141139943e+01 -1.9715890604878802e-01 3.4524612596151402e-02  1.3836531462422929e+01 -1.9715909286239344e-01 3.4524620012562637e-02  1.4931312277629418e+01 -1.9715919428644255e-01 3.4524624165700422e-02  1.6026093361721788e+01 -1.9715924917276334e-01 3.4524626461452768e-02  1.7120874591436905e+01 -1.9715927877565512e-01 3.4524627716593148e-02  1.8215655899567661e+01 -1.9715929462288243e-01 3.4524628394301621e-02  1.9310437249338218e+01 -1.9715930290359887e-01 3.4524628751247698e-02  2.0405218620194439e+01 -1.9715930685784669e-01 3.4524628924436078e-02  2.1500000000000004e+01 -1.9715930802845089e-01 3.4524628972570144e-02  0.0000000000000000e+00 0.0000000000000000e+00 0.0000000000000000e+00  7.2922208151552392e-01 -3.5657916531983791e-01 3.5558634449067657e-02  1.7968619707753981e+00 -3.9331014982318541e-01 3.4721113242997759e-02  2.8916793355585244e+00 -3.9463447930886303e-01 3.4761239709920386e-02  3.9845178482931392e+00 -3.9452045450610895e-01 3.4849791528301297e-02  5.0786845070734428e+00 -3.9449923995166086e-01 3.4854670375497540e-02  6.1732611905235855e+00 -3.9449830372531192e-01 3.4858024202441149e-02  7.2679405745275734e+00 -3.9450317905349380e-01 3.4859503667212126e-02  8.3626744595136397e+00 -3.9450733381576475e-01 3.4860001200673230e-02  9.4574316124840863e+00 -3.9450993971210369e-01 3.4860235644399336e-02  1.0552200400802715e+01 -3.9451145940166155e-01 3.4860342199331151e-02  1.1646975124062191e+01 -3.9451231032088963e-01 3.4860395109494333e-02  1.2741752950359340e+01 -3.9451277826364767e-01 3.4860422218853306e-02  1.3836532431187070e+01 -3.9451303329986864e-01 3.4860436288284405e-02  1.4931312798344374e+01 -3.9451317164760963e-01 3.4860443732958546e-02  1.6026093641886309e+01 -3.9451324648414332e-01 3.4860447702737246e-02  1.7120874741789237e+01 -3.9451328683831893e-01 3.4860449823652356e-02  1.8215655979284083e+01 -3.9451330843875365e-01 3.4860450952795663e-02  1.9310437289722177e+01 -3.9451331972553499e-01 3.4860451540875304e-02  2.0405218637090442e+01 -3.9451332511645670e-01 3.4860451823558410e-02  2.1500000000000004e+01 -3.9451332671176498e-01 3.4860451908298562e-02  0.0000000000000000e+00 0.0000000000000000e+00 0.0000000000000000e+00  7.5299651146889335e-01 -5.4542068842062996e-01 3.2934176018264212e-02  1.8035881908959612e+00 -5.8869016155194298e-01 3.4281798759656507e-02  2.8937583692301727e+00 -5.9186882788402384e-01 3.5250009336035830e-02  3.9851398353350835e+00 -5.9180098446502993e-01 3.5165487665728364e-02  5.0788490375839039e+00 -5.9181400571631537e-01 3.5179500989431692e-02  6.1733249640332835e+00 -5.9184049114234139e-01 3.5193626492394645e-02  7.2679663464401720e+00 -5.9185174290942755e-01 3.5194581042677482e-02  8.3626854059872535e+00 -5.9185862274897616e-01 3.5195596520650720e-02  9.4574368615999056e+00 -5.9186258838328343