<?xml version="1.0"?>
<VTKFile type="UnstructuredGrid"  version="0.1"  >
<UnstructuredGrid>
<Piece  NumberOfPoints="882" NumberOfCells="3600">
<Points>
<DataArray  type="Float64"  NumberOfComponents="3"  format="ascii">0 0 0  0.5 0 0  1 0 0  1.5 0 0  2 0 0  2.5 0 0  3 0 0  3.5 0 0  4 0 0  4.5 0 0  5 0 0  5.5 0 0  6 0 0  6.5 0 0  7 0 0  7.5 0 0  8 0 0  8.5 0 0  9 0 0  9.5 0 0  10 0 0  0 0.5 0  0.5 0.5 0  1 0.5 0  1.5 0.5 0  2 0.5 0  2.5 0.5 0  3 0.5 0  3.5 0.5 0  4 0.5 0  4.5 0.5 0  5 0.5 0  5.5 0.5 0  6 0.5 0  6.5 0.5 0  7 0.5 0  7.5 0.5 0  8 0.5 0  8.5 0.5 0  9 0.5 0  9.5 0.5 0  10 0.5 0  0 1 0  0.5 1 0  1 1 0  1.5 1 0  2 1 0  2.5 1 0  3 1 0  3.5 1 0  4 1 0  4.5 1 0  5 1 0  5.5 1 0  6 1 0  6.5 1 0  7 1 0  7.5 1 0  8 1 0  8.5 1 0  9 1 0  9.5 1 0  10 1 0  0 1.5 0  0.5 1.5 0  1 1.5 0  1.5 1.5 0  2 1.5 0  2.5 1.5 0  3 1.5 0  3.5 1.5 0  4 1.5 0  4.5 1.5 0  5 1.5 0  5.5 1.5 0  6 1.5 0  6.5 1.5 0  7 1.5 0  7.5 1.5 0  8 1.5 0  8.5 1.5 0  9 1.5 0  9.5 1.5 0  10 1.5 0  0 2 0  0.5 2 0  1 2 0  1.5 2 0  2 2 0  2.5 2 0  3 2 0  3.5 2 0  4 2 0  4.5 2 0  5 2 0  5.5 2 0  6 2 0  6.5 2 0  7 2 0  7.5 2 0  8 2 0  8.5 2 0  9 2 0  9.5 2 0  10 2 0  0 2.5 0  0.5 2.5 0  1 2.5 0  1.5 2.5 0  2 2.5 0  2.5 2.5 0  3 2.5 0  3.5 2.5 0  4 2.5 0  4.5 2.5 0  5 2.5 0  5.5 2.5 0  6 2.5 0  6.5 2.5 0  7 2.5 0  7.5 2.5 0  8 2.5 0  8.5 2.5 0  9 2.5 0  9.5 2.5 0  10 2.5 0  0 3 0  0.5 3 0  1 3 0  1.5 3 0  2 3 0  2.5 3 0  3 3 0  3.5 3 0  4 3 0  4.5 3 0  5 3 0  5.5 3 0  6 3 0  6.5 3 0  7 3 0  7.5 3 0  8 3 0  8.5 3 0  9 3 0  9.5 3 0  10 3 0  0 0 0.1  0.5 0 0.1  1 0 0.1  1.5 0 0.1  2 0 0.1  2.5 0 0.1  3 0 0.1  3.5 0 0.1  4 0 0.1  4.5 0 0.1  5 0 0.1  5.5 0 0.1  6 0 0.1  6.5 0 0.1  7 0 0.1  7.5 0 0.1  8 0 0.1  8.5 0 0.1  9 0 0.1  9.5 0 0.1  10 0 0.1  0 0.5 0.1  0.5 0.5 0.1  1 0.5 0.1  1.5 0.5 0.1  2 0.5 0.1  2.5 0.5 0.1  3 0.5 0.1  3.5 0.5 0.1  4 0.5 0.1  4.5 0.5 0.1  5 0.5 0.1  5.5 0.5 0.1  6 0.5 0.1  6.5 0.5 0.1  7 0.5 0.1  7.5 0.5 0.1  8 0.5 0.1  8.5 0.5 0.1  9 0.5 0.1  9.5 0.5 0.1  10 0.5 0.1  0 1 0.1  0.5 1 0.1  1 1 0.1  1.5 1 0.1  2 1 0.1  2.5 1 0.1  3 1 0.1  3.5 1 0.1  4 1 0.1  4.5 1 0.1  5 1 0.1  5.5 1 0.1  6 1 0.1  6.5 1 0.1  7 1 0.1  7.5 1 0.1  8 1 0.1  8.5 1 0.1  9 1 0.1  9.5 1 0.1  10 1 0.1  0 1.5 0.1  0.5 1.5 0.1  1 1.5 0.1  1.5 1.5 0.1  2 1.5 0.1  2.5 1.5 0.1  3 1.5 0.1  3.5 1.5 0.1  4 1.5 0.1  4.5 1.5 0.1  5 1.5 0.1  5.5 1.5 0.1  6 1.5 0.1  6.5 1.5 0.1  7 1.5 0.1  7.5 1.5 0.1  8 1.5 0.1  8.5 1.5 0.1  9 1.5 0.1  9.5 1.5 0.1  10 1.5 0.1  0 2 0.1  0.5 2 0.1  1 2 0.1  1.5 2 0.1  2 2 0.1  2.5 2 0.1  3 2 0.1  3.5 2 0.1  4 2 0.1  4.5 2 0.1  5 2 0.1  5.5 2 0.1  6 2 0.1  6.5 2 0.1  7 2 0.1  7.5 2 0.1  8 2 0.1  8.5 2 0.1  9 2 0.1  9.5 2 0.1  10 2 0.1  0 2.5 0.1  0.5 2.5 0.1  1 2.5 0.1  1.5 2.5 0.1  2 2.5 0.1  2.5 2.5 0.1  3 2.5 0.1  3.5 2.5 0.1  4 2.5 0.1  4.5 2.5 0.1  5 2.5 0.1  5.5 2.5 0.1  6 2.5 0.1  6.5 2.5 0.1  7 2.5 0.1  7.5 2.5 0.1  8 2.5 0.1  8.5 2.5 0.1  9 2.5 0.1  9.5 2.5 0.1  10 2.5 0.1  0 3 0.1  0.5 3 0.1  1 3 0.1  1.5 3 0.1  2 3 0.1  2.5 3 0.1  3 3 0.1  3.5 3 0.1  4 3 0.1  4.5 3 0.1  5 3 0.1  5.5 3 0.1  6 3 0.1  6.5 3 0.1  7 3 0.1  7.5 3 0.1  8 3 0.1  8.5 3 0.1  9 3 0.1  9.5 3 0.1  10 3 0.1  0 0 0.2  0.5 0 0.2  1 0 0.2  1.5 0 0.2  2 0 0.2  2.5 0 0.2  3 0 0.2  3.5 0 0.2  4 0 0.2  4.5 0 0.2  5 0 0.2  5.5 0 0.2  6 0 0.2  6.5 0 0.2  7 0 0.2  7.5 0 0.2  8 0 0.2  8.5 0 0.2  9 0 0.2  9.5 0 0.2  10 0 0.2  0 0.5 0.2  0.5 0.5 0.2  1 0.5 0.2  1.5 0.5 0.2  2 0.5 0.2  2.5 0.5 0.2  3 0.5 0.2  3.5 0.5 0.2  4 0.5 0.2  4.5 0.5 0.2  5 0.5 0.2  5.5 0.5 0.2  6 0.5 0.2  6.5 0.5 0.2  7 0.5 0.2  7.5 0.5 0.2  8 0.5 0.2  8.5 0.5 0.2  9 0.5 0.2  9.5 0.5 0.2  10 0.5 0.2  0 1 0.2  0.5 1 0.2  1 1 0.2  1.5 1 0.2  2 1 0.2  2.5 1 0.2  3 1 0.2  3.5 1 0.2  4 1 0.2  4.5 1 0.2  5 1 0.2  5.5 1 0.2  6 1 0.2  6.5 1 0.2  7 1 0.2  7.5 1 0.2  8 1 0.2  8.5 1 0.2  9 1 0.2  9.5 1 0.2  10 1 0.2  0 1.5 0.2  0.5 1.5 0.2  1 1.5 0.2  1.5 1.5 0.2  2 1.5 0.2  2.5 1.5 0.2  3 1.5 0.2  3.5 1.5 0.2  4 1.5 0.2  4.5 1.5 0.2  5 1.5 0.2  5.5 1.5 0.2  6 1.5 0.2  6.5 1.5 0.2  7 1.5 0.2  7.5 1.5 0.2  8 1.5 0.2  8.5 1.5 0.2  9 1.5 0.2  9.5 1.5 0.2  10 1.5 0.2  0 2 0.2  0.5 2 0.2  1 2 0.2  1.5 2 0.2  2 2 0.2  2.5 2 0.2  3 2 0.2  3.5 2 0.2  4 2 0.2  4.5 2 0.2  5 2 0.2  5.5 2 0.2  6 2 0.2  6.5 2 0.2  7 2 0.2  7.5 2 0.2  8 2 0.2  8.5 2 0.2  9 2 0.2  9.5 2 0.2  10 2 0.2  0 2.5 0.2  0.5 2.5 0.2  1 2.5 0.2  1.5 2.5 0.2  2 2.5 0.2  2.5 2.5 0.2  3 2.5 0.2  3.5 2.5 0.2  4 2.5 0.2  4.5 2.5 0.2  5 2.5 0.2  5.5 2.5 0.2  6 2.5 0.2  6.5 2.5 0.2  7 2.5 0.2  7.5 2.5 0.2  8 2.5 0.2  8.5 2.5 0.2  9 2.5 0.2  9.5 2.5 0.2  10 2.5 0.2  0 3 0.2  0.5 3 0.2  1 3 0.2  1.5 3 0.2  2 3 0.2  2.5 3 0.2  3 3 0.2  3.5 3 0.2  4 3 0.2  4.5 3 0.2  5 3 0.2  5.5 3 0.2  6 3 0.2  6.5 3 0.2  7 3 0.2  7.5 3 0.2  8 3 0.2  8.5 3 0.2  9 3 0.2  9.5 3 0.2  10 3 0.2  0 0 0.3  0.5 0 0.3  1 0 0.3  1.5 0 0.3  2 0 0.3  2.5 0 0.3  3 0 0.3  3.5 0 0.3  4 0 0.3  4.5 0 0.3  5 0 0.3  5.5 0 0.3  6 0 0.3  6.5 0 0.3  7 0 0.3  7.5 0 0.3  8 0 0.3  8.5 0 0.3  9 0 0.3  9.5 0 0.3  10 0 0.3  0 0.5 0.3  0.5 0.5 0.3  1 0.5 0.3  1.5 0.5 0.3  2 0.5 0.3  2.5 0.5 0.3  3 0.5 0.3  3.5 0.5 0.3  4 0.5 0.3  4.5 0.5 0.3  5 0.5 0.3  5.5 0.5 0.3  6 0.5 0.3  6.5 0.5 0.3  7 0.5 0.3  7.5 0.5 0.3  8 0.5 0.3  8.5 0.5 0.3  9 0.5 0.3  9.5 0.5 0.3  10 0.5 0.3  0 1 0.3  0.5 1 0.3  1 1 0.3  1.5 1 0.3  2 1 0.3  2.5 1 0.3  3 1 0.3  3.5 1 0.3  4 1 0.3  4.5 1 0.3  5 1 0.3  5.5 1 0.3  6 1 0.3  6.5 1 0.3  7 1 0.3  7.5 1 0.3  8 1 0.3  8.5 1 0.3  9 1 0.3  9.5 1 0.3  10 1 0.3  0 1.5 0.3  0.5 1.5 0.3  1 1.5 0.3  1.5 1.5 0.3  2 1.5 0.3  2.5 1.5 0.3  3 1.5 0.3  3.5 1.5 0.3  4 1.5 0.3  4.5 1.5 0.3  5 1.5 0.3  5.5 1.5 0.3  6 1.5 0.3  6.5 1.5 0.3  7 1.5 0.3  7.5 1.5 0.3  8 1.5 0.3  8.5 1.5 0.3  9 1.5 0.3  9.5 1.5 0.3  10 1.5 0.3  0 2 0.3  0.5 2 0.3  1 2 0.3  1.5 2 0.3  2 2 0.3  2.5 2 0.3  3 2 0.3  3.5 2 0.3  4 2 0.3  4.5 2 0.3  5 2 0.3  5.5 2 0.3  6 2 0.3  6.5 2 0.3  7 2 0.3  7.5 2 0.3  8 2 0.3  8.5 2 0.3  9 2 0.3  9.5 2 0.3  10 2 0.3  0 2.5 0.3  0.5 2.5 0.3  1 2.5 0.3  1.5 2.5 0.3  2 2.5 0.3  2.5 2.5 0.3  3 2.5 0.3  3.5 2.5 0.3  4 2.5 0.3  4.5 2.5 0.3  5 2.5 0.3  5.5 2.5 0.3  6 2.5 0.3  6.5 2.5 0.3  7 2.5 0.3  7.5 2.5 0.3  8 2.5 0.3  8.5 2.5 0.3  9 2.5 0.3  9.5 2.5 0.3  10 2.5 0.3  0 3 0.3  0.5 3 0.3  1 3 0.3  1.5 3 0.3  2 3 0.3  2.5 3 0.3  3 3 0.3  3.5 3 0.3  4 3 0.3  4.5 3 0.3  5 3 0.3  5.5 3 0.3  6 3 0.3  6.5 3 0.3  7 3 0.3  7.5 3 0.3  8 3 0.3  8.5 3 0.3  9 3 0.3  9.5 3 0.3  10 3 0.3  0 0 0.4  0.5 0 0.4  1 0 0.4  1.5 0 0.4  2 0 0.4  2.5 0 0.4  3 0 0.4  3.5 0 0.4  4 0 0.4  4.5 0 0.4  5 0 0.4  5.5 0 0.4  6 0 0.4  6.5 0 0.4  7 0 0.4  7.5 0 0.4  8 0 0.4  8.5 0 0.4  9 0 0.4  9.5 0 0.4  10 0 0.4  0 0.5 0.4  0.5 0.5 0.4  1 0.5 0.4  1.5 0.5 0.4  2 0.5 0.4  2.5 0.5 0.4  3 0.5 0.4  3.5 0.5 0.4  4 0.5 0.4  4.5 0.5 0.4  5 0.5 0.4  5.5 0.5 0.4  6 0.5 0.4  6.5 0.5 0.4  7 0.5 0.4  7.5 0.5 0.4  8 0.5 0.4  8.5 0.5 0.4  9 0.5 0.4  9.5 0.5 0.4  10 0.5 0.4  0 1 0.4  0.5 1 0.4  1 1 0.4  1.5 1 0.4  2 1 0.4  2.5 1 0.4  3 1 0.4  3.5 1 0.4  4 1 0.4  4.5 1 0.4  5 1 0.4  5.5 1 0.4  6 1 0.4  6.5 1 0.4  7 1 0.4  7.5 1 0.4  8 1 0.4  8.5 1 0.4  9 1 0.4  9.5 1 0.4  10 1 0.4  0 1.5 0.4  0.5 1.5 0.4  1 1.5 0.4  1.5 1.5 0.4  2 1.5 0.4  2.5 1.5 0.4  3 1.5 0.4  3.5 1.5 0.4  4 1.5 0.4  4.5 1.5 0.4  5 1.5 0.4  5.5 1.5 0.4  6 1.5 0.4  6.5 1.5 0.4  7 1.5 0.4  7.5 1.5 0.4  8 1.5 0.4  8.5 1.5 0.4  9 1.5 0.4  9.5 1.5 0.4  10 1.5 0.4  0 2 0.4  0.5 2 0.4  1 2 0.4  1.5 2 0.4  2 2 0.4  2.5 2 0.4  3 2 0.4  3.5 2 0.4  4 2 0.4  4.5 2 0.4  5 2 0.4  5.5 2 0.4  6 2 0.4  6.5 2 0.4  7 2 0.4  7.5 2 0.4  8 2 0.4  8.5 2 0.4  9 2 0.4  9.5 2 0.4  10 2 0.4  0 2.5 0.4  0.5 2.5 0.4  1 2.5 0.4  1.5 2.5 0.4  2 2.5 0.4  2.5 2.5 0.4  3 2.5 0.4  3.5 2.5 0.4  4 2.5 0.4  4.5 2.5 0.4  5 2.5 0.4  5.5 2.5 0.4  6 2.5 0.4  6.5 2.5 0.4  7 2.5 0.4  7.5 2.5 0.4  8 2.5 0.4  8.5 2.5 0.4  9 2.5 0.4  9.5 2.5 0.4  10 2.5 0.4  0 3 0.4  0.5 3 0.4  1 3 0.4  1.5 3 0.4  2 3 0.4  2.5 3 0.4  3 3 0.4  3.5 3 0.4  4 3 0.4  4.5 3 0.4  5 3 0.4  5.5 3 0.4  6 3 0.4  6.5 3 0.4  7 3 0.4  7.5 3 0.4  8 3 0.4  8.5 3 0.4  9 3 0.4  9.5 3 0.4  10 3 0.4  0 0 0.5  0.5 0 0.5  1 0 0.5  1.5 0 0.5  2 0 0.5  2.5 0 0.5  3 0 0.5  3.5 0 0.5  4 0 0.5  4.5 0 0.5  5 0 0.5  5.5 0 0.5  6 0 0.5  6.5 0 0.5  7 0 0.5  7.5 0 0.5  8 0 0.5  8.5 0 0.5  9 0 0.5  9.5 0 0.5  10 0 0.5  0 0.5 0.5  0.5 0.5 0.5  1 0.5 0.5  1.5 0.5 0.5  2 0.5 0.5  2.5 0.5 0.5  3 0.5 0.5  3.5 0.5 0.5  4 0.5 0.5  4.5 0.5 0.5  5 0.5 0.5  5.5 0.5 0.5  6 0.5 0.5  6.5 0.5 0.5  7 0.5 0.5  7.5 0.5 0.5  8 0.5 0.5  8.5 0.5 0.5  9 0.5 0.5  9.5 0.5 0.5  10 0.5 0.5  0 1 0.5  0.5 1 0.5  1 1 0.5  1.5 1 0.5  2 1 0.5  2.5 1 0.5  3 1 0.5  3.5 1 0.5  4 1 0.5  4.5 1 0.5  5 1 0.5  5.5 1 0.5  6 1 0.5  6.5 1 0.5  7 1 0.5  7.5 1 0.5  8 1 0.5  8.5 1 0.5  9 1 0.5  9.5 1 0.5  10 1 0.5  0 1.5 0.5  0.5 1.5 0.5  1 1.5 0.5  1.5 1.5 0.5  2 1.5 0.5  2.5 1.5 0.5  3 1.5 0.5  3.5 1.5 0.5  4 1.5 0.5  4.5 1.5 0.5  5 1.5 0.5  5.5 1.5 0.5  6 1.5 0.5  6.5 1.5 0.5  7 1.5 0.5  7.5 1.5 0.5  8 1.5 0.5  8.5 1.5 0.5  9 1.5 0.5  9.5 1.5 0.5  10 1.5 0.5  0 2 0.5  0.5 2 0.5  1 2 0.5  1.5 2 0.5  2 2 0.5  2.5 2 0.5  3 2 0.5  3.5 2 0.5  4 2 0.5  4.5 2 0.5  5 2 0.5  5.5 2 0.5  6 2 0.5  6.5 2 0.5  7 2 0.5  7.5 2 0.5  8 2 0.5  8.5 2 0.5  9 2 0.5  9.5 2 0.5  10 2 0.5  0 2.5 0.5  0.5 2.5 0.5  1 2.5 0.5  1.5 2.5 0.5  2 2.5 0.5  2.5 2.5 0.5  3 2.5 0.5  3.5 2.5 0.5  4 2.5 0.5  4.5 2.5 0.5  5 2.5 0.5  5.5 2.5 0.5  6 2.5 0.5  6.5 2.5 0.5  7 2.5 0.5  7.5 2.5 0.5  8 2.5 0.5  8.5 2.5 0.5  9 2.5 0.5  9.5 2.5 0.5  10 2.5 0.5  0 3 0.5  0.5 3 0.5  1 3 0.5  1.5 3 0.5  2 3 0.5  2.5 3 0.5  3 3 0.5  3.5 3 0.5  4 3 0.5  4.5 3 0.5  5 3 0.5  5.5 3 0.5  6 3 0.5  6.5 3 0.5  7 3 0.5  7.5 3 0.5  8 3 0.5  8.5 3 0.5  9 3 0.5  9.5 3 0.5  10 3 0.5  </DataArray>
</Points>
<Cells>
[...]
<PointData  Vectors="f_7-0"> 
<DataArray  type="Float64"  Name="f_7-0"  NumberOfComponents="3" format="ascii">0.0000000000000000e+00 0.0000000000000000e+00 0.0000000000000000e+00  8.0436352643855832e-02 6.2392860510138703e-02 1.7086826405257331e-02  1.5689001413482365e-01 9.8583725231817174e-02 1.5810941418271544e-02  2.3025003039192765e-01 1.1881127667937694e-01 1.6487090423082010e-02  3.1177925332186768e-01 1.2500652509282345e-01 1.7995855734002079e-02  4.0054914900200117e-01 1.2463883601987058e-01 1.8732033168766545e-02  4.9269039919205920e-01 1.2389588287680986e-01 1.8980590190539048e-02  5.8567647956543389e-01 1.2369064703313003e-01 1.9037512065450544e-02  6.7894061578328258e-01 1.2375414826127795e-01 1.9051739687871355e-02  7.7226881677296033e-01 1.2391817561987206e-01 1.9053863259137927e-02  8.6562323611587166e-01 1.2409706864632203e-01 1.9054495643098579e-02  9.5899654828290504e-01 1.2425604418979659e-01 1.9056076295323583e-02  1.0523893443929750e+00 1.2438563922353973e-01 1.9058380128699159e-02  1.1458011689050907e+00 1.2448706167170195e-01 1.9060852592695559e-02  1.2392299048524629e+00 1.2456474263102678e-01 1.9063124087203322e-02  1.3326726165592755e+00 1.2462331816461764e-01 1.9065028815984698e-02  1.4261262756503230e+00 1.2466665086590682e-01 1.9066527586752872e-02  1.5195881136103897e+00 1.2469766793514309e-01 1.9067638608013780e-02  1.6130557119780826e+00 1.2471845884311213e-01 1.9068397921083242e-02  1.7065269773435030e+00 1.2473040136271200e-01 1.9068834419671873e-02  1.7999999999999998e+00 1.2473431418296840e-01 1.9068983634398063e-02  0.0000000000000000e+00 0.0000000000000000e+00 0.0000000000000000e+00  5.0416765470650826e-02 2.7131649467545465e-02 1.8161275718438025e-02  1.3295051065899435e-01 6.6945206260042481e-02 1.8308133558895306e-02  2.1708066185554661e-01 8.4899607719970113e-02 1.8123179025574778e-02  3.0710753139672520e-01 8.8456321296001214e-02 1.8538515226060696e-02  3.9954080891807969e-01 8.7132453743625674e-02 1.8874424896418447e-02  4.9236153661664950e-01 8.6176798588291553e-02 1.8978995247896049e-02  5.8550163754284867e-01 8.5879246511256849e-02 1.9048504893842830e-02  6.7876871557843976e-01 8.5913250793409002e-02 1.9079920671279966e-02  7.7210107408254836e-01 8.6066190466675088e-02 1.9092774079134359e-02  8.6547125279289538e-01 8.6237359556222679e-02 1.9099375057894802e-02  9.5886772225356265e-01 8.6388887378314877e-02 1.9103345378977805e-02  1.0522850190675053e+00 8.6511436963234364e-02 1.9106215872213290e-02  1.1457191823554078e+00 8.6606662062949688e-02 1.9108480901911227e-02  1.2391668588560654e+00 8.6679225036203733e-02 1.9110301566455077e-02  1.3326251257171180e+00 8.6733768400325220e-02 1.9111741729643486e-02  1.4260914808068399e+00 8.6774048161907383e-02 1.9112846284953425e-02  1.5195638129110418e+00 8.6802856247393492e-02 1.9113655607212243e-02  1.6130403397715090e+00 8.6822158720663650e-02 1.9114204864576961e-02  1.7065195247583509e+00 8.6833252930682850e-02 1.9114522034794586e-02  1.7999999999999998e+00 8.6836871839963414e-02 1.9114620053039526e-02  0.0000000000000000e+00 0.0000000000000000e+00 0.0000000000000000e+00  3.3414214751141653e-02 7.1995032330232148e-03 1.6877421323852289e-02  1.1138819325900562e-01 3.4909493046354732e-02 2.1171480459894230e-02  2.0423456755905484e-01 4.7332766743951982e-02 1.9623782757923400e-02  3.0125416333164445e-01 4.9011857883257737e-02 1.9166655297507176e-02  3.9693397467066616e-01 4.8450492381413607e-02 1.9034078245300512e-02  4.9126296503320827e-01 4.7996388867243271e-02 1.9057098229767908e-02  5.8497284035043917e-01 4.7911311673502918e-02 1.9097747197482758e-02  6.7844282959239310e-01 4.8022180825246771e-02 1.9122397457025250e-02  7.7185636507751521e-01 4.8196428146617072e-02 1.9138115450513467e-02  8.6527206642465559e-01 4.8367830160950351e-02 1.9147024276738187e-02  9.5870460095964694e-01 4.8513339179195522e-02 1.9151978180077200e-02  1.0521537238960190e+00 4.8629305632788514e-02 1.9154871541208450e-02  1.1456156789728469e+00 4.8719061059222510e-02 1.9156697799015673e-02  1.2390868782568465e+00 4.8787472916037793e-02 1.9157941272279013e-02  1.3325646318522282e+00 4.8838972597123900e-02 1.9158829366208319e-02  1.4260470358538102e+00 4.8877061803270727e-02 1.9159472866634050e-02  1.5195327213039675e+00 4.8904333575502341e-02 1.9159929966028569e-02  1.6130206505795015e+00 4.8922620327827439e-02 1.9160235096005663e-02  1.7065099865867945e+00 4.8933133436026059e-02 1.9160406993071002e-02  1.7999999999999998e+00 4.8936566080572765e-02 1.9160461455473794e-02  0.0000000000000000e+00 0.0000000000000000e+00 0.0000000000000000e+00  3.0929325689598035e-02 1.7754963315757062e-03 1.4790890261918896e-02  9.8705226846007951e-02 4.0926193469281724e-03 2.3331144778107722e-02  1.9717937996008836e-01 7.2620561214353004e-03 2.0800973256752033e-02  2.9756089100130428e-01 8.1270498085831543e-03 1.9539592478300422e-02  3.9502779708579594e-01 8.8114164448211650e-03 1.9198055956455348e-02  4.9025963645561849e-01 9.3375875988842040e-03 1.9148179692319002e-02  5.8436165991187294e-01 9.7405204200258812e-03 1.9158261429296577e-02  6.7802352849182312e-01 1.0051335284739239e-02 1.9177979732110193e-02  7.7154202604802824e-01 1.0292051590176453e-02 1.9191922283775687e-02  8.6502720998935478e-01 1.0478755930071363e-02 1.9199584953307921e-02  9.5851220698111450e-01 1.0623432948618811e-02 1.9203354117000103e-02  1.0520031548189279e+00 1.0735267175011517e-02 1.9205065408312308e-02  1.1454989077000932e+00 1.0821388682671705e-02 1.9205813413588940e-02  1.2389974075957626e+00 1.0887293463206988e-02 1.9206139210976053e-02  1.3324972222426090e+00 1.0937192198287133e-02 1.9206288019010271e-02  1.4259975831278453e+00 1.0974274764554969e-02 1.9206362232228963e-02  1.5194981396292595e+00 1.1000912359708704e-02 1.9206402069489117e-02  1.6129987523558580e+00 1.1018808603410233e-02 1.9206423200570640e-02  1.7064993761115372e+00 1.1029108153617281e-02 1.9206431142231976e-02  1.7999999999999998e+00 1.1032470227440387e-02 1.9206431600087424e-02  0.0000000000000000e+00 0.0000000000000000e+00 0.0000000000000000e+00  3.2962453523255442e-02 -4.4300296667421305e-03 1.6842437219047719e-02  1.0459352795720758e-01 -2.3754326526863181e-02 2.2118823251539663e-02  2.0015762825820363e-01 -3.3241526745066974e-02 2.0131355074000604e-02  2.9870919744502017e-01 -3.2931898874467541e-02 1.9289917043561377e-02  3.9509067143024418e-01 -3.0951856265196875e-02 1.9196438820403523e-02  4.8984475426434976e-01 -2.9394737560453462e-02 1.9202181594553825e-02  5.8386563930500390e-01 -2.8483940529667039e-02 1.9228008568477829e-02  6.7758503123723079e-01 -2.7962101997619577e-02 1.9246135220051443e-02  7.7119136335668015e-01 -2.7645512109444062e-02 1.9254664489953360e-02  8.6475687517166067e-01 -2.7436061574578927e-02 1.9257554445456633e-02  9.5830606453686829e-01 -2.7286524175188596e-02 1.9257691025971913e-02  1.0518462592314404e+00 -2.7174439399058930e-02 1.9256820288808423e-02  1.1453795902033261e+00 -2.7088589113370899e-02 1.9255746837619676e-02  1.2389070545231973e+00 -2.7022622980450235e-02 1.9254775283077123e-02  1.3324295685748295e+00 -2.6972382436031058e-02 1.9253991337404072e-02  1.4259480932292330e+00 -2.6934863532336376e-02 1.9253395142911384e-02  1.5194635708746411e+00 -2.6907823930213719e-02 1.9252962887393112e-02  1.6129768692542192e+00 -2.6889622355538965e-02 1.9252671531724486e-02  1.7064887739983756e+00 -2.6879137826509560e-02 1.9252501155846119e-02  1.7999999999999998e+00 -2.6875715412198530e-02 1.9252443049284074e-02  0.0000000000000000e+00 0.0000000000000000e+00 0.0000000000000000e+00  4.4400143810603525e-02 -1.8182261571452866e-02 1.9226212866508111e-02  1.2564975507023110e-01 -5.5902912388133399e-02 1.8880141530234408e-02  2.1071762113602879e-01 -7.2271086749798263e-02 1.8197015187885600e-02  3.0267439177766337e-01 -7.2832828297110477e-02 1.8781730826857315e-02  3.9612758759707267e-01 -6.9803263532106835e-02 1.9131665735733522e-02  4.8968389109591060e-01 -6.7757909393811086e-02 1.9269063097225030e-02  5.8340732998751821e-01 -6.6608920708448080e-02 1.9316544842603440e-02  6.7714233793540624e-01 -6.5976069927457276e-02 1.9327611861093948e-02  7.7083968229718780e-01 -6.5610127663754708e-02 1.9325304892929076e-02  8.6449354936488065e-01 -6.5379165077966067e-02 1.9319499306562585e-02  9.5811123641229845e-01 -6.5219334717414604e-02 1.9313858040295180e-02  1.0517013508117607e+00 -6.5101313761436019e-02 1.9309348207001413e-02  1.1452709927670357e+00 -6.5011332372398659e-02 1.9305967465577219e-02  1.2388254788351016e+00 -6.4942184770403324e-02 1.9303489136232980e-02  1.3323687190139817e+00 -6.4889441139612591e-02 1.9301685262347348e-02  1.4259036465790140e+00 -6.4849992186830435e-02 1.9300383417376565e-02  1.5194325370194450e+00 -6.4821529053537955e-02 1.9299465755665997e-02  1.6129572238602483e+00 -6.4802354821850955e-02 1.9298856644704751e-02  1.7064792567559477e+00 -6.4791303539963749e-02 1.9298501015246276e-02  1.7999999999999998e+00 -6.4787694328579240e-02 1.9298383881445696e-02  0.0000000000000000e+00 0.0000000000000000e+00 0.0000000000000000e+00  7.4277184837043042e-02 -4.9848856196976828e-02 1.6883298852146653e-02  1.4986730937177886e-01 -8.8811418567033840e-02 1.5459597731410672e-02  2.2258329613092981e-01 -1.0646257161388263e-01 1.6371104496077368e-02  3.0533096144172528e-01 -1.0985110716562975e-01 1.8538547716214212e-02  3.9580066859547330e-01 -1.0764572031377852e-01 1.9253019062382942e-02  4.8899473731809129e-01 -1.0576408728358494e-01 1.9400637110929094e-02  5.8282236645565977e-01 -1.0465048640422482e-01 1.9434786660310115e-02  6.7671673552938760e-01 -1.0399687772152925e-01 1.9420457962073031e-02  7.7054266024228912e-01 -1.0360236950896465e-01 1.9399265475424497e-02  8.6428475856350107e-01 -1.0334820110714842e-01 1.9381794952070642e-02  9.5796074444275703e-01 -1.0317178339690335e-01 1.9369522319182174e-02  1.0515901097633873e+00 -1.0304223961636319e-01 1.9361243224091329e-02  1.1451874356393337e+00 -1.0294416254006855e-01 1.9355641357346576e-02  1.2387624312873100e+00 -1.0286919963553925e-01 1.9351770427431358e-02  1.3323215036498051e+00 -1.0281221272277401e-01 1.9349038718345393e-02  1.4258690645071213e+00 -1.0276966786276144e-01 1.9347096568060277e-02  1.5194083511525736e+00 -1.0273899761320639e-01 1.9345737263344515e-02  1.6129419004203207e+00 -1.0271834386297395e-01 1.9344836484106710e-02  1.7064718350095791e+00 -1.0270643775208528e-01 1.9344318673358864e-02  1.7999999999999998e+00 -1.0270256755376225e-01 1.9344151410653168e-02  0.0000000000000000e+00 0.0000000000000000e+00 0.0000000000000000e+00  8.1330135195260056e-02 6.1966250576020156e-02 1.0890756557507297e-02  1.5681242565510606e-01 9.8282251937632958e-02 9.7075250021758045e-03  2.3014795420932593e-01 1.1854670768438280e-01 1.0001963299679084e-02  3.1166633707351760e-01 1.2493776218268886e-01 1.0881980228971381e-02  4.0050246724572353e-01 1.2462530828587762e-01 1.1313722159223964e-02  4.9267282140423030e-01 1.2390105646530684e-01 1.1451363910035340e-02  5.8567285866147512e-01 1.2368773751070082e-01 1.1479636442523946e-02  6.7893973931105001e-01 1.2374835218781265e-01 1.1484925145925015e-02  7.7226860764868110e-01 1.2391036740395250e-01 1.1484062718076064e-02  8.6562307977244413e-01 1.2408823389112897e-01 1.1483143283857907e-02  9.5899631268698604e-01 1.2424680871551599e-01 1.1483277270667487e-02  1.0523890671231437e+00 1.2437629827225385e-01 1.1484147355960136e-02  1.1458008979727721e+00 1.2447773823527739e-01 1.1485311093883614e-02  1.2392296678219514e+00 1.2455547649099076e-01 1.1486475044866554e-02  1.3326724238751151e+00 1.2461411361954301e-01 1.1487494685772775e-02  1.4261261281669930e+00 1.2465749922601790e-01 1.1488318247716827e-02  1.5195880081992181e+00 1.2468855684561320e-01 1.1488939090148914e-02  1.6130556451988325e+00 1.2470937512951877e-01 1.1489368088845800e-02  1.7065269444390780e+00 1.2472133424431604e-01 1.1489616562960990e-02  1.7999999999999998e+00 1.2472525607036569e-01 1.1489705091682905e-02  0.0000000000000000e+00 0.0000000000000000e+00 0.0000000000000000e+00  5.1165659942857086e-02 2.7547256470398011e-02 1.1162730442653798e-02  1.3295788314667623e-01 6.6489156956160700e-02 1.1145532179078547e-02  2.1706526246995736e-01 8.4647586006336317e-02 1.0933247075779470e-02  3.0706193099115353e-01 8.8344715019825895e-02 1.1210205194364916e-02  3.9951095130546621e-01 8.7100444208539837e-02 1.1398498383961810e-02  4.9235129590614046e-01 8.6166455224157862e-02 1.1456651412960789e-02  5.8549673934679980e-01 8.5873965224056409e-02 1.1497925380814665e-02  6.7876648476012058e-01 8.5906694231761227e-02 1.1515757088175642e-02  7.7210004442266877e-01 8.6058153377113533e-02 1.1522644354738376e-02  8.6547069989697212e-01 8.6228454754116751e-02 1.1526248602930722e-02  9.5886733558655302e-01 8.6379594526325834e-02 1.1528370504102136e-02  1.0522847161173932e+00 8.6502029487582066e-02 1.1529939613342735e-02  1.1457189355460025e+00 8.6597270425204959e-02 1.1531204791989843e-02  1.2391666598368007e+00 8.6669896249188264e-02 1.1532240054414352e-02  1.3326249697215704e+00 8.6724510207185163e-02 1.1533069454697249e-02  1.4260913631991505e+00 8.6764852289697519e-02 1.1533711265014412e-02  1.5195637292078956e+00 8.6793709123930834e-02 1.1534184452988627e-02  1.6130402860609496e+00 8.6813046067372626e-02 1.1534506981052682e-02  1.7065194988548673e+00 8.6824159958295205e-02 1.1534693789639500e-02  1.7999999999999998e+00 8.6827789832793947e-02 1.1534751449156931e-02  0.0000000000000000e+00 0.0000000000000000e+00 0.0000000000000000e+00  3.3063564473899791e-02 7.2693278723377679e-03 1.0299433852312181e-02  1.1142846080030741e-01 3.4771723816407071e-02 1.2822746322896454e-02  2.0433595871419227e-01 4.7097611519617680e-02 1.1810790228108705e-02  3.0130353773503410e-01 4.8904333385357074e-02 1.1576309373190648e-02  3.9693770744978352e-01 4.8409850646696964e-02 1.1492248837365651e-02  4.9126061915655928e-01 4.7980409483439540e-02 1.1513607727737784e-02  5.8496911929228346e-01 4.7900582314441664e-02 1.1540446442121292e-02  6.7844020393675852e-01 4.8012606539786777e-02 1.1555319439735834e-02  7.7185488368875688e-01 4.8186881382513494e-02 1.1565436140395189e-02  8.6527124097670849e-01 4.8358178908172525e-02 1.1571187432315487e-02  9.5870412677951322e-01 4.8503653114242012e-02 1.1574400405985594e-02  1.0521534391676111e+00 4.8619675383880165e-02 1.1576301711498748e-02  1.1456154922172777e+00 4.8709529943146507e-02 1.1577502014853474e-02  1.2390867480829344e+00 4.8778048810759193e-02 1.1578314885479014e-02  1.3325645380803213e+00 4.8829645170576946e-02 1.1578889985499162e-02  1.4260469683726291e+00 4.8867813417386871e-02 1.1579302640921619e-02  1.5195326744631359e+00 4.8895145111720918e-02 1.1579593383930054e-02  1.6130206211540605e+00 4.8913473316468586e-02 1.1579786288523431e-02  1.7065099721432235e+00 4.8924011045564923e-02 1.1579894906229770e-02  1.7999999999999998e+00 4.8927452718066186e-02 1.1579929894653453e-02  0.0000000000000000e+00 0.0000000000000000e+00 0.0000000000000000e+00  3.0575065442968383e-02 1.8066309544124445e-03 9.0233060776341197e-03  9.8433041350211317e-02 4.1254795121151485e-03 1.4144303895891551e-02  1.9740867021370712e-01 7.2096313610490077e-03 1.2540794956843050e-02  2.9766510648977079e-01 8.0867651637088565e-03 1.1821416189970230e-02  3.9504710329379883e-01 8.7917013674021077e-03 1.1609374967831921e-02  4.9026121662754985e-01 9.3230635796556580e-03 1.1583873217711184e-02  5.8435902137150963e-01 9.7276402660586032e-03 1.1591043003243814e-02  6.7802126182201083e-01 1.0039398844538994e-02 1.1604741041035611e-02  7.7154069976370776e-01 1.0280887780655000e-02 1.1614493236679107e-02  8.6502650305447748e-01 1.0468121908716510e-02 1.1619825526224023e-02  9.5851187491670509e-01 1.0613192503863295e-02 1.1622571947718175e-02  1.0520030080784759e+00 1.0725331065405340e-02 1.1623899498453464e-02  1.1454988437722466e+00 1.0811685542216018e-02 1.1624534916139176e-02  1.2389973796360465e+00 1.0877768781611619e-02 1.1624846923977685e-02  1.3324972091725711e+00 1.0927802784033602e-02 1.1625008941526922e-02  1.4259975764952624e+00 1.0964985951144783e-02 1.1625098796114307e-02  1.5194981360518200e+00 1.0991695862308876e-02 1.1625150659214814e-02  1.6129987505238979e+00 1.1009640725103610e-02 1.1625180011457464e-02  1.7064993752397446e+00 1.1019968341919338e-02 1.1625194050294831e-02  1.7999999999999998e+00 1.1023339299560361e-02 1.1625196886691334e-02  0.0000000000000000e+00 0.0000000000000000e+00 0.0000000000000000e+00  3.2747749718196759e-02 -4.5526792859398348e-03 1.0224982564473266e-02  1.0433056832562906e-01 -2.3534081215069318e-02 1.3464185128766010e-02  2.0038042382483873e-01 -3.3052319090908305e-02 1.2174532336909466e-02  2.9878041240327780e-01 -3.2879913071791098e-02 1.1703758258159886e-02  3.9509299454274671e-01 -3.0944517713966540e-02 1.1632332653009708e-02  4.8984207452273815e-01 -2.9405945127857352e-02 1.1636084958276598e-02  5.8386238671170898e-01 -2.8498480057939545e-02 1.1652665652073235e-02  6.7758339475991414e-01 -2.7976011025786486e-02 1.1664865390215429e-02  7.7119066593496000e-01 -2.7658108009257297e-02 1.1670637388951546e-02  8.6475670348410516e-01 -2.7447566064724389e-02 1.1672825001360699e-02  9.5830612719342056e-01 -2.7297236642647237e-02 1.1673200275926455e-02  1.0518463895230248e+00 -2.7184621339615030e-02 1.1672854935831905e-02  1.1453797228324760e+00 -2.7098417620533360e-02 1.1672320503194139e-02  1.2389071668563343e+00 -2.7032211326840982e-02 1.1671805285210900e-02  1.3324296562294005e+00 -2.6981804283366183e-02 1.1671377134538896e-02  1.4259481582849820e+00 -2.6944168700060413e-02 1.1671045786877885e-02  1.5194636164708444e+00 -2.6917048294148486e-02 1.1670802866325294e-02  1.6129768983021344e+00 -2.6898793524251029e-02 1.1670637879721075e-02  1.7064887879732460e+00 -2.6888278246425746e-02 1.1670541305591454e-02  1.7999999999999998e+00 -2.6884847382884200e-02 1.1670507350971740e-02  0.0000000000000000e+00 0.0000000000000000e+00 0.0000000000000000e+00  4.4584467921154704e-02 -1.8094415696448835e-02 1.1740879809222627e-02  1.2574486035094370e-01 -5.5660086214056527e-02 1.1542637674602509e-02  2.1075988288964242e-01 -7.1992199434610660e-02 1.1045785575758820e-02  3.0266660442492516e-01 -7.2735822554898119e-02 1.1431183428486851e-02  3.9609883260950135e-01 -6.9803543474231053e-02 1.1626074071662220e-02  4.8967321316895707e-01 -6.7773949452986079e-02 1.1701408754951662e-02  5.8340409747710620e-01 -6.6626839300032742e-02 1.1729148362927566e-02  6.7714205339920019e-01 -6.5991835856972769e-02 1.1734805536627551e-02  7.7084025060214756e-01 -6.5623638411461724e-02 1.1732819435874415e-02  8.6449430072275757e-01 -6.5391039151768013e-02 1.1729024493940431e-02  9.5811188844525719e-01 -6.5230168497779961e-02 1.1725427261902966e-02  1.0517018532942910e+00 -6.5111514984257823e-02 1.1722585793131955e-02  1.1452713649662658e+00 -6.5021142215153066e-02 1.1720470620237381e-02  1.2388257502614772e+00 -6.4951743616974339e-02 1.1718929078824969e-02  1.3323689154902265e+00 -6.4898832404900894e-02 1.1717813061002422e-02  1.4259037866869668e+00 -6.4859268683261237e-02 1.1717011520586542e-02  1.5194326331476178e+00 -6.4830727150003695e-02 1.1716448919092024e-02  1.6129572842702480e+00 -6.4811501854835932e-02 1.1716076677604938e-02  1.7064792853855093e+00 -6.4800422006982272e-02 1.1715860954295360e-02  1.7999999999999998e+00 -6.4796807625438629e-02 1.1715788883547280e-02  0.0000000000000000e+00 0.0000000000000000e+00 0.0000000000000000e+00  7.5754390688463430e-02 -5.0471821453225804e-02 1.0906941802339453e-02  1.5000803390437958e-01 -8.8504567141981960e-02 9.5374431032962219e-03  2.2247270482462839e-01 -1.0605715532666164e-01 9.9993249187180170e-03  3.0524704577311185e-01 -1.0978590460045995e-01 1.1367715075223319e-02  3.9574022355284827e-01 -1.0765538023727611e-01 1.1723459359666203e-02  4.8898071590971320e-01 -1.0578405825478869e-01 1.1806943213263761e-02  5.8282055218156459e-01 -1.0467261906145284e-01 1.1825109702844887e-02  6.7671808078878048e-01 -1.0401440047940888e-01 1.1812086779439854e-02  7.7054460431820193e-01 -1.0361670262451564