<?xml version="1.0"?>
<VTKFile type="UnstructuredGrid"  version="0.1"  >
<UnstructuredGrid>
<Piece  NumberOfPoints="588" NumberOfCells="2160">
<Points>
<DataArray  type="Float64"  NumberOfComponents="3"  format="ascii">0 0 0  0.5 0 0  1 0 0  1.5 0 0  2 0 0  2.5 0 0  3 0 0  3.5 0 0  4 0 0  4.5 0 0  5 0 0  5.5 0 0  6 0 0  6.5 0 0  7 0 0  7.5 0 0  8 0 0  8.5 0 0  9 0 0  9.5 0 0  10 0 0  0 0.5 0  0.5 0.5 0  1 0.5 0  1.5 0.5 0  2 0.5 0  2.5 0.5 0  3 0.5 0  3.5 0.5 0  4 0.5 0  4.5 0.5 0  5 0.5 0  5.5 0.5 0  6 0.5 0  6.5 0.5 0  7 0.5 0  7.5 0.5 0  8 0.5 0  8.5 0.5 0  9 0.5 0  9.5 0.5 0  10 0.5 0  0 1 0  0.5 1 0  1 1 0  1.5 1 0  2 1 0  2.5 1 0  3 1 0  3.5 1 0  4 1 0  4.5 1 0  5 1 0  5.5 1 0  6 1 0  6.5 1 0  7 1 0  7.5 1 0  8 1 0  8.5 1 0  9 1 0  9.5 1 0  10 1 0  0 1.5 0  0.5 1.5 0  1 1.5 0  1.5 1.5 0  2 1.5 0  2.5 1.5 0  3 1.5 0  3.5 1.5 0  4 1.5 0  4.5 1.5 0  5 1.5 0  5.5 1.5 0  6 1.5 0  6.5 1.5 0  7 1.5 0  7.5 1.5 0  8 1.5 0  8.5 1.5 0  9 1.5 0  9.5 1.5 0  10 1.5 0  0 2 0  0.5 2 0  1 2 0  1.5 2 0  2 2 0  2.5 2 0  3 2 0  3.5 2 0  4 2 0  4.5 2 0  5 2 0  5.5 2 0  6 2 0  6.5 2 0  7 2 0  7.5 2 0  8 2 0  8.5 2 0  9 2 0  9.5 2 0  10 2 0  0 2.5 0  0.5 2.5 0  1 2.5 0  1.5 2.5 0  2 2.5 0  2.5 2.5 0  3 2.5 0  3.5 2.5 0  4 2.5 0  4.5 2.5 0  5 2.5 0  5.5 2.5 0  6 2.5 0  6.5 2.5 0  7 2.5 0  7.5 2.5 0  8 2.5 0  8.5 2.5 0  9 2.5 0  9.5 2.5 0  10 2.5 0  0 3 0  0.5 3 0  1 3 0  1.5 3 0  2 3 0  2.5 3 0  3 3 0  3.5 3 0  4 3 0  4.5 3 0  5 3 0  5.5 3 0  6 3 0  6.5 3 0  7 3 0  7.5 3 0  8 3 0  8.5 3 0  9 3 0  9.5 3 0  10 3 0  0 0 0.1666666666666667  0.5 0 0.1666666666666667  1 0 0.1666666666666667  1.5 0 0.1666666666666667  2 0 0.1666666666666667  2.5 0 0.1666666666666667  3 0 0.1666666666666667  3.5 0 0.1666666666666667  4 0 0.1666666666666667  4.5 0 0.1666666666666667  5 0 0.1666666666666667  5.5 0 0.1666666666666667  6 0 0.1666666666666667  6.5 0 0.1666666666666667  7 0 0.1666666666666667  7.5 0 0.1666666666666667  8 0 0.1666666666666667  8.5 0 0.1666666666666667  9 0 0.1666666666666667  9.5 0 0.1666666666666667  10 0 0.1666666666666667  0 0.5 0.1666666666666667  0.5 0.5 0.1666666666666667  1 0.5 0.1666666666666667  1.5 0.5 0.1666666666666667  2 0.5 0.1666666666666667  2.5 0.5 0.1666666666666667  3 0.5 0.1666666666666667  3.5 0.5 0.1666666666666667  4 0.5 0.1666666666666667  4.5 0.5 0.1666666666666667  5 0.5 0.1666666666666667  5.5 0.5 0.1666666666666667  6 0.5 0.1666666666666667  6.5 0.5 0.1666666666666667  7 0.5 0.1666666666666667  7.5 0.5 0.1666666666666667  8 0.5 0.1666666666666667  8.5 0.5 0.1666666666666667  9 0.5 0.1666666666666667  9.5 0.5 0.1666666666666667  10 0.5 0.1666666666666667  0 1 0.1666666666666667  0.5 1 0.1666666666666667  1 1 0.1666666666666667  1.5 1 0.1666666666666667  2 1 0.1666666666666667  2.5 1 0.1666666666666667  3 1 0.1666666666666667  3.5 1 0.1666666666666667  4 1 0.1666666666666667  4.5 1 0.1666666666666667  5 1 0.1666666666666667  5.5 1 0.1666666666666667  6 1 0.1666666666666667  6.5 1 0.1666666666666667  7 1 0.1666666666666667  7.5 1 0.1666666666666667  8 1 0.1666666666666667  8.5 1 0.1666666666666667  9 1 0.1666666666666667  9.5 1 0.1666666666666667  10 1 0.1666666666666667  0 1.5 0.1666666666666667  0.5 1.5 0.1666666666666667  1 1.5 0.1666666666666667  1.5 1.5 0.1666666666666667  2 1.5 0.1666666666666667  2.5 1.5 0.1666666666666667  3 1.5 0.1666666666666667  3.5 1.5 0.1666666666666667  4 1.5 0.1666666666666667  4.5 1.5 0.1666666666666667  5 1.5 0.1666666666666667  5.5 1.5 0.1666666666666667  6 1.5 0.1666666666666667  6.5 1.5 0.1666666666666667  7 1.5 0.1666666666666667  7.5 1.5 0.1666666666666667  8 1.5 0.1666666666666667  8.5 1.5 0.1666666666666667  9 1.5 0.1666666666666667  9.5 1.5 0.1666666666666667  10 1.5 0.1666666666666667  0 2 0.1666666666666667  0.5 2 0.1666666666666667  1 2 0.1666666666666667  1.5 2 0.1666666666666667  2 2 0.1666666666666667  2.5 2 0.1666666666666667  3 2 0.1666666666666667  3.5 2 0.1666666666666667  4 2 0.1666666666666667  4.5 2 0.1666666666666667  5 2 0.1666666666666667  5.5 2 0.1666666666666667  6 2 0.1666666666666667  6.5 2 0.1666666666666667  7 2 0.1666666666666667  7.5 2 0.1666666666666667  8 2 0.1666666666666667  8.5 2 0.1666666666666667  9 2 0.1666666666666667  9.5 2 0.1666666666666667  10 2 0.1666666666666667  0 2.5 0.1666666666666667  0.5 2.5 0.1666666666666667  1 2.5 0.1666666666666667  1.5 2.5 0.1666666666666667  2 2.5 0.1666666666666667  2.5 2.5 0.1666666666666667  3 2.5 0.1666666666666667  3.5 2.5 0.1666666666666667  4 2.5 0.1666666666666667  4.5 2.5 0.1666666666666667  5 2.5 0.1666666666666667  5.5 2.5 0.1666666666666667  6 2.5 0.1666666666666667  6.5 2.5 0.1666666666666667  7 2.5 0.1666666666666667  7.5 2.5 0.1666666666666667  8 2.5 0.1666666666666667  8.5 2.5 0.1666666666666667  9 2.5 0.1666666666666667  9.5 2.5 0.1666666666666667  10 2.5 0.1666666666666667  0 3 0.1666666666666667  0.5 3 0.1666666666666667  1 3 0.1666666666666667  1.5 3 0.1666666666666667  2 3 0.1666666666666667  2.5 3 0.1666666666666667  3 3 0.1666666666666667  3.5 3 0.1666666666666667  4 3 0.1666666666666667  4.5 3 0.1666666666666667  5 3 0.1666666666666667  5.5 3 0.1666666666666667  6 3 0.1666666666666667  6.5 3 0.1666666666666667  7 3 0.1666666666666667  7.5 3 0.1666666666666667  8 3 0.1666666666666667  8.5 3 0.1666666666666667  9 3 0.1666666666666667  9.5 3 0.1666666666666667  10 3 0.1666666666666667  0 0 0.3333333333333333  0.5 0 0.3333333333333333  1 0 0.3333333333333333  1.5 0 0.3333333333333333  2 0 0.3333333333333333  2.5 0 0.3333333333333333  3 0 0.3333333333333333  3.5 0 0.3333333333333333  4 0 0.3333333333333333  4.5 0 0.3333333333333333  5 0 0.3333333333333333  5.5 0 0.3333333333333333  6 0 0.3333333333333333  6.5 0 0.3333333333333333  7 0 0.3333333333333333  7.5 0 0.3333333333333333  8 0 0.3333333333333333  8.5 0 0.3333333333333333  9 0 0.3333333333333333  9.5 0 0.3333333333333333  10 0 0.3333333333333333  0 0.5 0.3333333333333333  0.5 0.5 0.3333333333333333  1 0.5 0.3333333333333333  1.5 0.5 0.3333333333333333  2 0.5 0.3333333333333333  2.5 0.5 0.3333333333333333  3 0.5 0.3333333333333333  3.5 0.5 0.3333333333333333  4 0.5 0.3333333333333333  4.5 0.5 0.3333333333333333  5 0.5 0.3333333333333333  5.5 0.5 0.3333333333333333  6 0.5 0.3333333333333333  6.5 0.5 0.3333333333333333  7 0.5 0.3333333333333333  7.5 0.5 0.3333333333333333  8 0.5 0.3333333333333333  8.5 0.5 0.3333333333333333  9 0.5 0.3333333333333333  9.5 0.5 0.3333333333333333  10 0.5 0.3333333333333333  0 1 0.3333333333333333  0.5 1 0.3333333333333333  1 1 0.3333333333333333  1.5 1 0.3333333333333333  2 1 0.3333333333333333  2.5 1 0.3333333333333333  3 1 0.3333333333333333  3.5 1 0.3333333333333333  4 1 0.3333333333333333  4.5 1 0.3333333333333333  5 1 0.3333333333333333  5.5 1 0.3333333333333333  6 1 0.3333333333333333  6.5 1 0.3333333333333333  7 1 0.3333333333333333  7.5 1 0.3333333333333333  8 1 0.3333333333333333  8.5 1 0.3333333333333333  9 1 0.3333333333333333  9.5 1 0.3333333333333333  10 1 0.3333333333333333  0 1.5 0.3333333333333333  0.5 1.5 0.3333333333333333  1 1.5 0.3333333333333333  1.5 1.5 0.3333333333333333  2 1.5 0.3333333333333333  2.5 1.5 0.3333333333333333  3 1.5 0.3333333333333333  3.5 1.5 0.3333333333333333  4 1.5 0.3333333333333333  4.5 1.5 0.3333333333333333  5 1.5 0.3333333333333333  5.5 1.5 0.3333333333333333  6 1.5 0.3333333333333333  6.5 1.5 0.3333333333333333  7 1.5 0.3333333333333333  7.5 1.5 0.3333333333333333  8 1.5 0.3333333333333333  8.5 1.5 0.3333333333333333  9 1.5 0.3333333333333333  9.5 1.5 0.3333333333333333  10 1.5 0.3333333333333333  0 2 0.3333333333333333  0.5 2 0.3333333333333333  1 2 0.3333333333333333  1.5 2 0.3333333333333333  2 2 0.3333333333333333  2.5 2 0.3333333333333333  3 2 0.3333333333333333  3.5 2 0.3333333333333333  4 2 0.3333333333333333  4.5 2 0.3333333333333333  5 2 0.3333333333333333  5.5 2 0.3333333333333333  6 2 0.3333333333333333  6.5 2 0.3333333333333333  7 2 0.3333333333333333  7.5 2 0.3333333333333333  8 2 0.3333333333333333  8.5 2 0.3333333333333333  9 2 0.3333333333333333  9.5 2 0.3333333333333333  10 2 0.3333333333333333  0 2.5 0.3333333333333333  0.5 2.5 0.3333333333333333  1 2.5 0.3333333333333333  1.5 2.5 0.3333333333333333  2 2.5 0.3333333333333333  2.5 2.5 0.3333333333333333  3 2.5 0.3333333333333333  3.5 2.5 0.3333333333333333  4 2.5 0.3333333333333333  4.5 2.5 0.3333333333333333  5 2.5 0.3333333333333333  5.5 2.5 0.3333333333333333  6 2.5 0.3333333333333333  6.5 2.5 0.3333333333333333  7 2.5 0.3333333333333333  7.5 2.5 0.3333333333333333  8 2.5 0.3333333333333333  8.5 2.5 0.3333333333333333  9 2.5 0.3333333333333333  9.5 2.5 0.3333333333333333  10 2.5 0.3333333333333333  0 3 0.3333333333333333  0.5 3 0.3333333333333333  1 3 0.3333333333333333  1.5 3 0.3333333333333333  2 3 0.3333333333333333  2.5 3 0.3333333333333333  3 3 0.3333333333333333  3.5 3 0.3333333333333333  4 3 0.3333333333333333  4.5 3 0.3333333333333333  5 3 0.3333333333333333  5.5 3 0.3333333333333333  6 3 0.3333333333333333  6.5 3 0.3333333333333333  7 3 0.3333333333333333  7.5 3 0.3333333333333333  8 3 0.3333333333333333  8.5 3 0.3333333333333333  9 3 0.3333333333333333  9.5 3 0.3333333333333333  10 3 0.3333333333333333  0 0 0.5  0.5 0 0.5  1 0 0.5  1.5 0 0.5  2 0 0.5  2.5 0 0.5  3 0 0.5  3.5 0 0.5  4 0 0.5  4.5 0 0.5  5 0 0.5  5.5 0 0.5  6 0 0.5  6.5 0 0.5  7 0 0.5  7.5 0 0.5  8 0 0.5  8.5 0 0.5  9 0 0.5  9.5 0 0.5  10 0 0.5  0 0.5 0.5  0.5 0.5 0.5  1 0.5 0.5  1.5 0.5 0.5  2 0.5 0.5  2.5 0.5 0.5  3 0.5 0.5  3.5 0.5 0.5  4 0.5 0.5  4.5 0.5 0.5  5 0.5 0.5  5.5 0.5 0.5  6 0.5 0.5  6.5 0.5 0.5  7 0.5 0.5  7.5 0.5 0.5  8 0.5 0.5  8.5 0.5 0.5  9 0.5 0.5  9.5 0.5 0.5  10 0.5 0.5  0 1 0.5  0.5 1 0.5  1 1 0.5  1.5 1 0.5  2 1 0.5  2.5 1 0.5  3 1 0.5  3.5 1 0.5  4 1 0.5  4.5 1 0.5  5 1 0.5  5.5 1 0.5  6 1 0.5  6.5 1 0.5  7 1 0.5  7.5 1 0.5  8 1 0.5  8.5 1 0.5  9 1 0.5  9.5 1 0.5  10 1 0.5  0 1.5 0.5  0.5 1.5 0.5  1 1.5 0.5  1.5 1.5 0.5  2 1.5 0.5  2.5 1.5 0.5  3 1.5 0.5  3.5 1.5 0.5  4 1.5 0.5  4.5 1.5 0.5  5 1.5 0.5  5.5 1.5 0.5  6 1.5 0.5  6.5 1.5 0.5  7 1.5 0.5  7.5 1.5 0.5  8 1.5 0.5  8.
[...]
<PointData  Vectors="f_7-0"> 
<DataArray  type="Float64"  Name="f_7-0"  NumberOfComponents="3" format="ascii">0.0000000000000000e+00 0.0000000000000000e+00 0.0000000000000000e+00  5.9726345355841981e-01 4.8588426952446767e-01 8.9756310041404178e-02  1.4650096036581082e+00 5.3964217229782363e-01 9.1198287106337761e-02  2.3466901371520663e+00 5.4335433342516715e-01 9.1826366699612652e-02  3.2351525070502456e+00 5.4338574740789558e-01 9.1938975615141444e-02  4.1261241751058257e+00 5.4328365595346573e-01 9.1982113353299130e-02  5.0176253928410226e+00 5.4323848714166323e-01 9.1990668849454615e-02  5.9092259450496742e+00 5.4321886408285469e-01 9.1991173763202011e-02  6.8008402650291719e+00 5.4320952705145975e-01 9.1990803994123418e-02  7.6924502112073894e+00 5.4320485212267777e-01 9.1990391304509062e-02  8.5840540254535593e+00 5.4320241721068130e-01 9.1990093074965279e-02  9.4756534426470704e+00 5.4320111116358605e-01 9.1989914092560937e-02  1.0367250166089240e+01 5.4320040017016458e-01 9.1989812998175352e-02  1.1258845327487057e+01 5.4320001060703982e-01 9.1989756766192254e-02  1.2150439605421059e+01 5.4319979645721161e-01 9.1989725737743777e-02  1.3042033390149335e+01 5.4319967859673646e-01 9.1989708699243528e-02  1.3933626901593952e+01 5.4319961382423199e-01 9.1989699371638103e-02  1.4825220262699986e+01 5.4319957848608580e-01 9.1989694301905955e-02  1.5716813542375162e+01 5.4319955969643985e-01 9.1989691614031116e-02  1.6608406780037530e+01 5.4319955062349878e-01 9.1989690321803597e-02  1.7500000000000007e+01 5.4319954793134628e-01 9.1989689918081430e-02  0.0000000000000000e+00 0.0000000000000000e+00 0.0000000000000000e+00  5.7763883718121434e-01 3.1426647817028713e-01 9.3383460119420100e-02  1.4564479441886533e+00 3.6019738264156326e-01 9.2144065750416018e-02  2.3443745200252044e+00 3.6267504444717663e-01 9.2216055931633081e-02  3.2345802434786064e+00 3.6246724549610521e-01 9.2227163508133994e-02  4.1260063830633174e+00 3.6231414425857567e-01 9.2231786013526509e-02  5.0176051783523654e+00 3.6225653313581291e-01 9.2234939123174722e-02  5.9092263868685899e+00 3.6223525942420959e-01 9.2235026876638995e-02  6.8008440128717202e+00 3.6222655831599859e-01 9.2234468740168954e-02  7.6924532721675281e+00 3.6222261013279083e-01 9.2234064391181161e-02  8.5840559801952647e+00 3.6222067533149260e-01 9.2233823340819907e-02  9.4756545947343849e+00 3.6221967530679522e-01 9.2233682659099397e-02  1.0367250822706096e+01 3.6221914189640086e-01 9.2233602770184178e-02  1.1258845695597998e+01 3.6221885264169235e-01 9.2233558325131998e-02  1.2150439810033738e+01 3.6221869446124189e-01 9.2233533763872361e-02  1.3042033503286328e+01 3.6221860763603642e-01 9.2233520221964016e-02  1.3933626963765315e+01 3.6221855998268149e-01 9.2233512780235491e-02  1.4825220296353434e+01 3.6221853400032200e-01 9.2233508724463023e-02  1.5716813559712788e+01 3.6221852019025635e-01 9.2233506570278220e-02  1.6608406787366043e+01 3.6221851351785761e-01 9.2233505538559371e-02  1.7500000000000007e+01 3.6221851154846879e-01 9.2233505235209179e-02  0.0000000000000000e+00 0.0000000000000000e+00 0.0000000000000000e+00  5.6537176342062878e-01 1.5434487125033597e-01 9.6145207120283141e-02  1.4440991920922690e+00 1.8029557120575698e-01 9.2987928682990301e-02  2.3404351600792515e+00 1.8166999211478438e-01 9.2629599443961486e-02  3.2335440115904839e+00 1.8143485804141787e-01 9.2512348690139967e-02  4.1257801776653524e+00 1.8131147008449208e-01 9.2488368521631975e-02  5.0175681912019048e+00 1.8126647212583319e-01 9.2481373714121629e-02  5.9092312665213589e+00 1.8125009357869537e-01 9.2478917061295754e-02  6.8008542209030498e+00 1.8124346477539738e-01 9.2478018985597654e-02  7.6924609599018190e+00 1.8124050236799394e-01 9.2477661512059162e-02  8.5840607800714448e+00 1.8123906678207385e-01 9.2477499041833583e-02  9.4756574006685828e+00 1.8123832945581825e-01 9.2477416155926917e-02  1.0367252415553331e+01 1.8123793770842583e-01 9.2477372156410192e-02  1.1258846586721997e+01 1.8123772572914384e-01 9.2477348376462876e-02  1.2150440304869143e+01 1.8123760993934557e-01 9.2477335335057809e-02  1.3042033776769983e+01 1.8123754642291257e-01 9.2477328141836609e-02  1.3933627114017273e+01 1.8123751157466861e-01 9.2477324178763420e-02  1.4825220377678663e+01 1.8123749257749222e-01 9.2477322013047883e-02  1.5716813601615792e+01 1.8123748248095858e-01 9.2477320861328580e-02  1.6608406805070800e+01 1.8123747760041159e-01 9.2477320319818784e-02  1.7500000000000007e+01 1.8123747615034430e-01 9.2477320157604612e-02  0.0000000000000000e+00 0.0000000000000000e+00 0.0000000000000000e+00  5.6182398647773668e-01 1.1364922821582009e-03 9.6938763971644817e-02  1.4386740425328821e+00 4.4015064230910742e-04 9.3399861995814668e-02  2.3389518433132004e+00 3.3472259105500065e-04 9.2929221922210065e-02  3.2332306959085848e+00 2.9215462054510568e-04 9.2766210213194700e-02  4.1257459295899084e+00 2.8109430820798454e-04 9.2733679623610829e-02  5.0175944931337719e+00 2.7047542011253087e-04 9.2724697748530385e-02  5.9092597815920334e+00 2.6421131927013359e-04 9.2721918384311666e-02  6.8008739366105395e+00 2.6075345764749316e-04 9.2721289396550263e-02  7.6924728701496115e+00 2.5882617413377373e-04 9.2721157450308317e-02  8.5840676450619906e+00 2.5775669496072990e-04 9.2721130423383577e-02  9.4756612744372060e+00 2.5716489057889621e-04 9.2721127984368282e-02  1.0367254576606660e+01 2.5683817583471767e-04 9.2721130306031241e-02  1.1258847785344365e+01 2.5665784926987337e-04 9.2721132321943164e-02  1.2150440967657886e+01 2.5655835459909021e-04 9.2721133516129400e-02  1.3042034142308005e+01 2.5650351009297556e-04 9.2721134168190694e-02  1.3933627314631869e+01 2.5647334919263093e-04 9.2721134514683057e-02  1.4825220486210103e+01 2.5645688862195831e-04 9.2721134696980553e-02  1.5716813657527204e+01 2.5644813457440673e-04 9.2721134793436938e-02  1.6608406828716127e+01 2.5644389678664388e-04 9.2721134854394358e-02  1.7500000000000007e+01 2.5644263219888944e-04 9.2721134868662347e-02  0.0000000000000000e+00 0.0000000000000000e+00 0.0000000000000000e+00  5.6711869311596896e-01 -1.5170642093745706e-01 9.6280481217414199e-02  1.4439088314162141e+00 -1.7951434118133586e-01 9.3469344481556541e-02  2.3412797637324729e+00 -1.8100112986144751e-01 9.3045842245166696e-02  3.2340732470233458e+00 -1.8081418659630197e-01 9.2967605522398258e-02  4.1260469963091957e+00 -1.8073852806407184e-01 9.2964374210269859e-02  5.0177188072445880e+00 -1.8072111800824500e-01 9.2964178152028162e-02  5.9093156643471554e+00 -1.8071909318953314e-01 9.2963921800518948e-02  6.8009012485334761e+00 -1.8072054777624783e-01 9.2964334066485133e-02  7.6924869005021952e+00 -1.8072208834039200e-01 9.2964604164072026e-02  8.5840751110139752e+00 -1.8072313685675112e-01 9.2964754021756246e-02  9.4756653185016635e+00 -1.8072377013750252e-01 9.2964841192039890e-02  1.0367256785666145e+01 -1.8072413481192212e-01 9.2964890426311064e-02  1.1258848997808302e+01 -1.8072434027079529e-01 9.2964917520154455e-02  1.2150441634578801e+01 -1.8072445473200535e-01 9.2964932390206007e-02  1.3042034509137554e+01 -1.8072451812475096e-01 9.2964940561867909e-02  1.3933627515682916e+01 -1.8072455306735566e-01 9.2964945041724784e-02  1.4825220594906767e+01 -1.8072457215842613e-01 9.2964947480638715e-02  1.5716813713510978e+01 -1.8072458231814154e-01 9.2964948777793086e-02  1.6608406852398645e+01 -1.8072458723911480e-01 9.2964949416852641e-02  1.7500000000000007e+01 -1.8072458871075434e-01 9.2964949601426927e-02  0.0000000000000000e+00 0.0000000000000000e+00 0.0000000000000000e+00  5.8568604512581912e-01 -3.1351882876904358e-01 9.5102675753917523e-02  1.4565276630615527e+00 -3.5923688622242883e-01 9.2865511603012291e-02  2.3457568883164908e+00 -3.6185573231537288e-01 9.3003004950091298e-02  3.2355152270661200e+00 -3.6178660209072089e-01 9.3167416652358101e-02  4.1264916369489386e+00 -3.6171768196429205e-01 9.3193667807244418e-02  5.0178725543459768e+00 -3.6169773844589909e-01 9.3202497159847866e-02  5.9093750954448598e+00 -3.6169723942548399e-01 9.3206038212062872e-02  6.8009265837687645e+00 -3.6169986242686708e-01 9.3207517843131832e-02  7.6924987836863723e+00 -3.6170212940438634e-01 9.3208133386600472e-02  8.5840811005067312e+00 -3.6170361064549528e-01 9.3208427539310273e-02  9.4756684625184384e+00 -3.6170449085169076e-01 9.3208583458773531e-02  1.0367258474522780e+01 -3.6170499456638655e-01 9.3208666451155012e-02  1.1258849916839218e+01 -3.6170527722817197e-01 9.3208711319987494e-02  1.2150442137871794e+01 -3.6170543440839853e-01 9.3208735953395294e-02  1.3042034785339309e+01 -3.6170552139191403e-01 9.3208749517136744e-02  1.3933627666890544e+01 -3.6170556931514342e-01 9.3208756973300347e-02  1.4825220676612242e+01 -3.6170559549112002e-01 9.3208761044738075e-02  1.5716813755585250e+01 -3.6170560941926472e-01 9.3208763212537210e-02  1.6608406870200504e+01 -3.6170561616680647e-01 9.3208764273988068e-02  1.7500000000000007e+01 -3.6170561818133135e-01 9.3208764586643442e-02  0.0000000000000000e+00 0.0000000000000000e+00 0.0000000000000000e+00  6.1506744859341156e-01 -4.8362068613358800e-01 8.7142927110868365e-02  1.4644240790163445e+00 -5.3778624294706856e-01 9.1571636334996445e-02  2.3484206314557845e+00 -5.4243867780483468e-01 9.3374722915278957e-02  3.2362865867253454e+00 -5.4265652229436301e-01 9.3405761606188173e-02  4.1266938099851096e+00 -5.4265147606297870e-01 9.3423781789876023e-02  5.0179437539246070e+00 -5.4266278424771641e-01 9.3445013798608895e-02  5.9094023891207614e+00 -5.4267177103691966e-01 9.3449520692521298e-02  6.8009376609963574e+00 -5.4267778832145608e-01 9.3451150583325357e-02  7.6925038757163682e+00 -5.4268161989864405e-01 9.3451845004871775e-02  8.5840836311990021e+00 -5.4268383807189158e-01 9.3452193436757702e-02  9.4756697799105218e+00 -5.4268509239322693e-01 9.3452372284411098e-02  1.0367259178456322e+01 -5.4268579280318130e-01 9.3452466118277663e-02  1.1258850298855393e+01 -5.4268618139998337e-01 9.3452517806371468e-02  1.2150442346829797e+01 -5.4268639633186844e-01 9.3452546431839145e-02  1.3042034899936203e+01 -5.4268651493513032e-01 9.3452562251753704e-02  1.3933627729603934e+01 -5.4268658018872573e-01 9.3452570989790179e-02  1.4825220710494541e+01 -5.4268661580806177e-01 9.3452575780847286e-02  1.5716813773031305e+01 -5.4268663475570722e-01 9.3452578338782025e-02  1.6608406877574314e+01 -5.4268664394013089e-01 9.3452579579808237e-02  1.7500000000000007e+01 -5.4268664664421296e-01 9.3452579967158708e-02  0.0000000000000000e+00 0.0000000000000000e+00 0.0000000000000000e+00  5.9803086668849259e-01 4.8350384362667304e-01 3.0968724948373553e-02  1.4650925032014745e+00 5.3944076496020443e-01 3.1479955353338668e-02  2.3466929237710241e+00 5.4327223609043818e-01 3.1642998168205302e-02  3.2351532022784579e+00 5.4329369500678915e-01 3.1640363316735434e-02  4.1261236810579414e+00 5.4320089211914591e-01 3.1660586597042094e-02  5.0176256734334261e+00 5.4315734589593256e-01 3.1664082714809819e-02  5.9092260814868114e+00 5.4313764897589611e-01 3.1663499951525696e-02  6.8008402938122483e+00 5.4312829839266508e-01 3.1663170088799410e-02  7.6924502247591180e+00 5.4312361473090576e-01 3.1662972824695108e-02  8.5840540335594557e+00 5.4312116501150842e-01 3.1662839768859849e-02  9.4756534466645235e+00 5.4311984956327786e-01 3.1662764234169527e-02  1.0367250168093674e+01 5.4311913373470511e-01 3.1662723988839951e-02  1.1258845328546245e+01 5.4311874162095097e-01 3.1662702404847566e-02  1.2150439605988666e+01 5.4311852611140266e-01 3.1662690773379160e-02  1.3042033390453440e+01 5.4311840753178919e-01 3.1662684504936200e-02  1.3933626901756199e+01 5.4311834237844980e-01 3.1662681122264773e-02  1.4825220262784063e+01 5.4311830683823747e-01 3.1662679302418520e-02  1.5716813542412146e+01 5.4311828794433636e-01 3.1662678344793881e-02  1.6608406780043921e+01 5.4311827882055885e-01 3.1662677885173504e-02  1.7500000000000007e+01 5.4311827609898344e-01 3.1662677733491185e-02  0.0000000000000000e+00 0.0000000000000000e+00 0.0000000000000000e+00  5.7913098045965861e-01 3.1355502133213825e-01 3.2666884442635484e-02  1.4569230420281731e+00 3.5989212501663570e-01 3.1820907785767467e-02  2.3443098602107009e+00 3.6255459832502973e-01 3.1894515721180086e-02  3.2345779364216898e+00 3.6237140739234780e-01 3.1911249075773314e-02  4.1260088938003614e+00 3.6223047208430020e-01 3.1907078564539074e-02  5.0176056288567175e+00 3.6217506608616812e-01 3.1907265988975468e-02  5.9092264447594314e+00 3.6215399866167958e-01 3.1907146347362483e-02  6.8008440375415367e+00 3.6214533786593367e-01 3.1906872130053346e-02  7.6924532887286947e+00 3.6214138346941738e-01 3.1906700665745233e-02  8.5840559876227456e+00 3.6213943116759806e-01 3.1906607733784662e-02  9.4756545980350353e+00 3.6213841889540432e-01 3.1906556040124247e-02  1.0367250824407323e+01 3.6213787851927703e-01 3.1906527366826531e-02  1.1258845696509010e+01 3.6213758539409890e-01 3.1906511678328385e-02  1.2150439810520290e+01 3.6213742509160646e-01 3.1906503112572530e-02  1.3042033503547955e+01 3.6213733711588558e-01 3.1906498427811784e-02  1.3933626963906102e+01 3.6213728884072394e-01 3.1906495867579626e-02  1.4825220296427242e+01 3.6213726252394329e-01 3.1906494477672999e-02  1.5716813559747020e+01 3.6213724853800583e-01 3.1906493741721186e-02  1.6608406787374381e+01 3.6213724178077883e-01 3.1906493390440785e-02  1.7500000000000007e+01 3.6213723977924483e-01 3.1906493286255694e-02  0.0000000000000000e+00 0.0000000000000000e+00 0.0000000000000000e+00  5.6719696144567222e-01 1.5392057888442517e-01 3.3430883674321926e-02  1.4445752894070787e+00 1.8006330013420357e-01 3.2322517628322917e-02  2.3403795880369249e+00 1.8154810001294200e-01 3.2192630771078909e-02  3.2335451052389685e+00 1.8134751517184503e-01 3.2163855377326321e-02  4.1257848483115014e+00 1.8122914915844313e-01 3.2154269228093210e-02  5.0175681060718782e+00 1.8118497459308380e-01 3.2151357336681952e-02  5.9092312560150138e+00 1.8116887778176319e-01 3.2150734720499015e-02  6.8008542547410764e+00 1.8116228752625985e-01 3.2150504649188158e-02  7.6924609709285949e+00 1.8115929461457322e-01 3.2150403500795510e-02  8.5840607818147294e+00 1.8115783259668392e-01 3.2150359605129838e-02  9.4756574011986014e+00 1.8115707902346762e-01 3.2150337084772725e-02  1.0367252415852468e+01 1.8115667777291861e-01 3.2150324498603326e-02  1.1258846586850735e+01 1.8115646042260683e-01 3.2150317440679282e-02  1.2150440304925539e+01 1.8115634166375852e-01 3.2150313472702627e-02  1.3042033776798853e+01 1.8115627651808658e-01 3.2150311239590841e-02  1.3933627114032380e+01 1.8115624077856479e-01 3.2150309990310925e-02  1.4825220377685877e+01 1.8115622129754408e-01 3.2150309300223383e-02  1.5716813601617593e+01 1.8115621094496717e-01 3.2150308931092698e-02  1.6608406805068459e+01 1.8115620594118392e-01 3.2150308757006231e-02  1.7500000000000007e+01 1.8115620445458067e-01 3.2150308703676828e-02  0.0000000000000000e+00 0.0000000000000000e+00 0.0000000000000000e+00  5.6374889674793205e-01 1.0837912021960958e-03 3.3691849819556807e-02  1.4390258623249912e+00 3.0969709644637834e-04 3.2648850647776062e-02  2.3389656298435959e+00 2.6033069993840787e-04 3.2462703613940103e-02  3.2332222911723920e+00 2.1776465617322918e-04 3.2402419712712682e-02  4.1257495903302486e+00 2.0094633501434203e-04 3.2397144100513496e-02  5.0175938289065840e+00 1.8961419983394708e-04 3.2394648933474768e-02  5.9092597503240762e+00 1.8323081745436057e-04 3.2394130621502586e-02  6.8008739572562984e+00 1.7963518493386142e-04 3.2394079380699201e-02  7.6924728631258468e+00 1.7763145787734163e-04 3.2394091096345431e-02  8.5840676399376701e+00 1.7652669632353582e-04 3.2394106092921968e-02  9.4756612722347118e+00 1.7591617766450499e-04 3.2394115004559583e-02  1.0367254575425450e+01 1.7557902237965659e-04 3.2394119691772617e-02  1.1258847784660865e+01 1.7539296240513206e-04 3.2394121997461410e-02  1.2150440967281316e+01 1.7529032645778183e-04 3.2394123086810687e-02  1.3042034142103399e+01 1.7523375193736329e-04 3.2394123600530469e-02  1.3933627314520367e+01 1.7520263935918913e-04 3.2394123845935249e-02  1.4825220486150078e+01 1.7518565964392755e-04 3.2394123964817396e-02  1.5716813657496470e+01 1.7517662975490857e-04 3.2394124023649315e-02  1.6608406828703796e+01 1.7517225977798045e-04 3.2394124054136164e-02  1.7500000000000007e+01 1.7517095904782422e-04 3.2394124061357756e-02  0.0000000000000000e+00 0.0000000000000000e+00 0.0000000000000000e+00  5.6902870175420628e-01 -1.5161332339265915e-01 3.3736683894714549e-02  1.4442306260071029e+00 -1.7948397819348880e-01 3.2869226774335722e-02  2.3413064637051071e+00 -1.8102822960151244e-01 3.2653028156678761e-02  3.2340542444988825e+00 -1.8088594538109357e-01 3.2629491235640261e-02  4.1260496560423263e+00 -1.8081696835965999e-01 3.2636743622697674e-02  5.0177179450351828e+00 -1.8080116204314692e-01 3.2637133715447825e-02  5.9093155768089751e+00 -1.8079995646237601e-01 3.2637385300837499e-02  6.8009012392522727e+00 -1.8080166393955732e-01 3.2637663898453899e-02  7.6924868752181457e+00 -1.8080328945045226e-01 3.2637796413057155e-02  8.5840751017471533e+00 -1.8080437246777722e-01 3.2637863709900281e-02  9.4756653142862728e+00 -1.8080502276173444e-01 3.2637899069439279e-02  1.0367256783302286e+01 -1.8080539627057240e-01 3.2637917993110339e-02  1.1258848996509986e+01 -1.8080560640266080e-01 3.2637928037246716e-02  1.2150441633877625e+01 -1.8080572342853196e-01 3.2637933404086140e-02  1.3042034508755380e+01 -1.8080578824324092e-01 3.2637936300046903e-02  1.3933627515474262e+01 -1.8080582397206060e-01 3.2637937867157525e-02  1.4825220594795116e+01 -1.8080584349435755e-01 3.2637938712292841e-02  1.5716813713455529e+01 -1.8080585388408357e-01 3.2637939159104838e-02  1.6608406852378995e+01 -1.8080585891604609e-01 3.2637939376623577e-02  1.7500000000000007e+01 -1.8080586041657276e-01 3.2637939439342907e-02  0.0000000000000000e+00 0.0000000000000000e+00 0.0000000000000000e+00  5.8789501372462571e-01 -3.1261682290461618e-01 3.3901778313825237e-02  1.4567202212075128e+00 -3.5905930162786442e-01 3.2762019469228763e-02  2.3458018716913345e+00 -3.6191680641705670e-01 3.2797636735451219e-02  3.2354950529845419e+00 -3.6186092033969869e-01 3.2868809633736028e-02  4.1264909095967202e+00 -3.6179569547263368e-01 3.2877074947520790e-02  5.0178722162661229e+00 -3.6177842413292816e-01 3.2879866935563440e-02  5.9093750093434210e+00 -3.6177831123528331e-01 3.2880935052147682e-02  6.8009265449936462e+00 -3.6178105818557671e-01 3.2881380723556335e-02  7.6924987555949427e+00 -3.6178336632903485e-01 3.2881562275044421e-02  8.5840810914076595e+00 -3.6178486426891421e-01 3.2881650025447032e-02  9.4756684577968002e+00 -3.6178575305122029e-01 3.2881698010607592e-02  1.0367258471747565e+01 -3.6178626096880845e-01 3.2881723781953039e-02  1.1258849915338796e+01 -3.6178654599071514e-01 3.2881737876024331e-02  1.2150442137059422e+01 -3.6178670453200107e-01 3.2881745707634080e-02  1.3042034784890337e+01 -3.6178679228769406e-01 3.2881750051796999e-02  1.3933627666644041e+01 -3.6178684064682176e-01 3.2881752452095021e-02  1.4825220676480635e+01 -3.6178686706604829e-01 3.2881753767889675e-02  1.5716813755521294e+01 -3.6178688112556595e-01 3.2881754470195500e-02  1.6608406870179323e+01 -3.6178688793608871e-01 3.2881754814102389e-02  1.7500000000000007e+01 -3.6178688996601316e-01 3.2881754918016988e-02  0.0000000000000000e+00 0.0000000000000000e+00 0.0000000000000000e+00  6.1411202736691384e-01 -4.8231044707436049e-01 3.0587438122306281e-02  1.4650796390636551e+00 -5.3750393815601860e-01 3.2536140409799720e-02  2.3484502118569499e+00 -5.4261175275168694e-01 3.3182379784635729e-02  3.2362344888992052e+00 -5.4272445584655149e-01 3.3109704253224376e-02  4.1266943460182297e+00 -5.4272953845323968e-01 3.3119128129016503e-02  5.0179445820584547e+00 -5.4274439689699039e-01 3.3124771830249457e-02  5.9094020897972062e+00 -5.4275294570209198e-01 3.3124930956016437e-02  6.8009376040411045e+00 -5.4275905074738340e-01 3.3125287334819536e-02  7.6925038525156531e+00 -5.4276287335558615