<?xml version="1.0"?>
<VTKFile type="UnstructuredGrid"  version="0.1"  >
<UnstructuredGrid>
<Piece  NumberOfPoints="882" NumberOfCells="3600">
<Points>
<DataArray  type="Float64"  NumberOfComponents="3"  format="ascii">0 0 0  0.5 0 0  1 0 0  1.5 0 0  2 0 0  2.5 0 0  3 0 0  3.5 0 0  4 0 0  4.5 0 0  5 0 0  5.5 0 0  6 0 0  6.5 0 0  7 0 0  7.5 0 0  8 0 0  8.5 0 0  9 0 0  9.5 0 0  10 0 0  0 0.5 0  0.5 0.5 0  1 0.5 0  1.5 0.5 0  2 0.5 0  2.5 0.5 0  3 0.5 0  3.5 0.5 0  4 0.5 0  4.5 0.5 0  5 0.5 0  5.5 0.5 0  6 0.5 0  6.5 0.5 0  7 0.5 0  7.5 0.5 0  8 0.5 0  8.5 0.5 0  9 0.5 0  9.5 0.5 0  10 0.5 0  0 1 0  0.5 1 0  1 1 0  1.5 1 0  2 1 0  2.5 1 0  3 1 0  3.5 1 0  4 1 0  4.5 1 0  5 1 0  5.5 1 0  6 1 0  6.5 1 0  7 1 0  7.5 1 0  8 1 0  8.5 1 0  9 1 0  9.5 1 0  10 1 0  0 1.5 0  0.5 1.5 0  1 1.5 0  1.5 1.5 0  2 1.5 0  2.5 1.5 0  3 1.5 0  3.5 1.5 0  4 1.5 0  4.5 1.5 0  5 1.5 0  5.5 1.5 0  6 1.5 0  6.5 1.5 0  7 1.5 0  7.5 1.5 0  8 1.5 0  8.5 1.5 0  9 1.5 0  9.5 1.5 0  10 1.5 0  0 2 0  0.5 2 0  1 2 0  1.5 2 0  2 2 0  2.5 2 0  3 2 0  3.5 2 0  4 2 0  4.5 2 0  5 2 0  5.5 2 0  6 2 0  6.5 2 0  7 2 0  7.5 2 0  8 2 0  8.5 2 0  9 2 0  9.5 2 0  10 2 0  0 2.5 0  0.5 2.5 0  1 2.5 0  1.5 2.5 0  2 2.5 0  2.5 2.5 0  3 2.5 0  3.5 2.5 0  4 2.5 0  4.5 2.5 0  5 2.5 0  5.5 2.5 0  6 2.5 0  6.5 2.5 0  7 2.5 0  7.5 2.5 0  8 2.5 0  8.5 2.5 0  9 2.5 0  9.5 2.5 0  10 2.5 0  0 3 0  0.5 3 0  1 3 0  1.5 3 0  2 3 0  2.5 3 0  3 3 0  3.5 3 0  4 3 0  4.5 3 0  5 3 0  5.5 3 0  6 3 0  6.5 3 0  7 3 0  7.5 3 0  8 3 0  8.5 3 0  9 3 0  9.5 3 0  10 3 0  0 0 0.1  0.5 0 0.1  1 0 0.1  1.5 0 0.1  2 0 0.1  2.5 0 0.1  3 0 0.1  3.5 0 0.1  4 0 0.1  4.5 0 0.1  5 0 0.1  5.5 0 0.1  6 0 0.1  6.5 0 0.1  7 0 0.1  7.5 0 0.1  8 0 0.1  8.5 0 0.1  9 0 0.1  9.5 0 0.1  10 0 0.1  0 0.5 0.1  0.5 0.5 0.1  1 0.5 0.1  1.5 0.5 0.1  2 0.5 0.1  2.5 0.5 0.1  3 0.5 0.1  3.5 0.5 0.1  4 0.5 0.1  4.5 0.5 0.1  5 0.5 0.1  5.5 0.5 0.1  6 0.5 0.1  6.5 0.5 0.1  7 0.5 0.1  7.5 0.5 0.1  8 0.5 0.1  8.5 0.5 0.1  9 0.5 0.1  9.5 0.5 0.1  10 0.5 0.1  0 1 0.1  0.5 1 0.1  1 1 0.1  1.5 1 0.1  2 1 0.1  2.5 1 0.1  3 1 0.1  3.5 1 0.1  4 1 0.1  4.5 1 0.1  5 1 0.1  5.5 1 0.1  6 1 0.1  6.5 1 0.1  7 1 0.1  7.5 1 0.1  8 1 0.1  8.5 1 0.1  9 1 0.1  9.5 1 0.1  10 1 0.1  0 1.5 0.1  0.5 1.5 0.1  1 1.5 0.1  1.5 1.5 0.1  2 1.5 0.1  2.5 1.5 0.1  3 1.5 0.1  3.5 1.5 0.1  4 1.5 0.1  4.5 1.5 0.1  5 1.5 0.1  5.5 1.5 0.1  6 1.5 0.1  6.5 1.5 0.1  7 1.5 0.1  7.5 1.5 0.1  8 1.5 0.1  8.5 1.5 0.1  9 1.5 0.1  9.5 1.5 0.1  10 1.5 0.1  0 2 0.1  0.5 2 0.1  1 2 0.1  1.5 2 0.1  2 2 0.1  2.5 2 0.1  3 2 0.1  3.5 2 0.1  4 2 0.1  4.5 2 0.1  5 2 0.1  5.5 2 0.1  6 2 0.1  6.5 2 0.1  7 2 0.1  7.5 2 0.1  8 2 0.1  8.5 2 0.1  9 2 0.1  9.5 2 0.1  10 2 0.1  0 2.5 0.1  0.5 2.5 0.1  1 2.5 0.1  1.5 2.5 0.1  2 2.5 0.1  2.5 2.5 0.1  3 2.5 0.1  3.5 2.5 0.1  4 2.5 0.1  4.5 2.5 0.1  5 2.5 0.1  5.5 2.5 0.1  6 2.5 0.1  6.5 2.5 0.1  7 2.5 0.1  7.5 2.5 0.1  8 2.5 0.1  8.5 2.5 0.1  9 2.5 0.1  9.5 2.5 0.1  10 2.5 0.1  0 3 0.1  0.5 3 0.1  1 3 0.1  1.5 3 0.1  2 3 0.1  2.5 3 0.1  3 3 0.1  3.5 3 0.1  4 3 0.1  4.5 3 0.1  5 3 0.1  5.5 3 0.1  6 3 0.1  6.5 3 0.1  7 3 0.1  7.5 3 0.1  8 3 0.1  8.5 3 0.1  9 3 0.1  9.5 3 0.1  10 3 0.1  0 0 0.2  0.5 0 0.2  1 0 0.2  1.5 0 0.2  2 0 0.2  2.5 0 0.2  3 0 0.2  3.5 0 0.2  4 0 0.2  4.5 0 0.2  5 0 0.2  5.5 0 0.2  6 0 0.2  6.5 0 0.2  7 0 0.2  7.5 0 0.2  8 0 0.2  8.5 0 0.2  9 0 0.2  9.5 0 0.2  10 0 0.2  0 0.5 0.2  0.5 0.5 0.2  1 0.5 0.2  1.5 0.5 0.2  2 0.5 0.2  2.5 0.5 0.2  3 0.5 0.2  3.5 0.5 0.2  4 0.5 0.2  4.5 0.5 0.2  5 0.5 0.2  5.5 0.5 0.2  6 0.5 0.2  6.5 0.5 0.2  7 0.5 0.2  7.5 0.5 0.2  8 0.5 0.2  8.5 0.5 0.2  9 0.5 0.2  9.5 0.5 0.2  10 0.5 0.2  0 1 0.2  0.5 1 0.2  1 1 0.2  1.5 1 0.2  2 1 0.2  2.5 1 0.2  3 1 0.2  3.5 1 0.2  4 1 0.2  4.5 1 0.2  5 1 0.2  5.5 1 0.2  6 1 0.2  6.5 1 0.2  7 1 0.2  7.5 1 0.2  8 1 0.2  8.5 1 0.2  9 1 0.2  9.5 1 0.2  10 1 0.2  0 1.5 0.2  0.5 1.5 0.2  1 1.5 0.2  1.5 1.5 0.2  2 1.5 0.2  2.5 1.5 0.2  3 1.5 0.2  3.5 1.5 0.2  4 1.5 0.2  4.5 1.5 0.2  5 1.5 0.2  5.5 1.5 0.2  6 1.5 0.2  6.5 1.5 0.2  7 1.5 0.2  7.5 1.5 0.2  8 1.5 0.2  8.5 1.5 0.2  9 1.5 0.2  9.5 1.5 0.2  10 1.5 0.2  0 2 0.2  0.5 2 0.2  1 2 0.2  1.5 2 0.2  2 2 0.2  2.5 2 0.2  3 2 0.2  3.5 2 0.2  4 2 0.2  4.5 2 0.2  5 2 0.2  5.5 2 0.2  6 2 0.2  6.5 2 0.2  7 2 0.2  7.5 2 0.2  8 2 0.2  8.5 2 0.2  9 2 0.2  9.5 2 0.2  10 2 0.2  0 2.5 0.2  0.5 2.5 0.2  1 2.5 0.2  1.5 2.5 0.2  2 2.5 0.2  2.5 2.5 0.2  3 2.5 0.2  3.5 2.5 0.2  4 2.5 0.2  4.5 2.5 0.2  5 2.5 0.2  5.5 2.5 0.2  6 2.5 0.2  6.5 2.5 0.2  7 2.5 0.2  7.5 2.5 0.2  8 2.5 0.2  8.5 2.5 0.2  9 2.5 0.2  9.5 2.5 0.2  10 2.5 0.2  0 3 0.2  0.5 3 0.2  1 3 0.2  1.5 3 0.2  2 3 0.2  2.5 3 0.2  3 3 0.2  3.5 3 0.2  4 3 0.2  4.5 3 0.2  5 3 0.2  5.5 3 0.2  6 3 0.2  6.5 3 0.2  7 3 0.2  7.5 3 0.2  8 3 0.2  8.5 3 0.2  9 3 0.2  9.5 3 0.2  10 3 0.2  0 0 0.3  0.5 0 0.3  1 0 0.3  1.5 0 0.3  2 0 0.3  2.5 0 0.3  3 0 0.3  3.5 0 0.3  4 0 0.3  4.5 0 0.3  5 0 0.3  5.5 0 0.3  6 0 0.3  6.5 0 0.3  7 0 0.3  7.5 0 0.3  8 0 0.3  8.5 0 0.3  9 0 0.3  9.5 0 0.3  10 0 0.3  0 0.5 0.3  0.5 0.5 0.3  1 0.5 0.3  1.5 0.5 0.3  2 0.5 0.3  2.5 0.5 0.3  3 0.5 0.3  3.5 0.5 0.3  4 0.5 0.3  4.5 0.5 0.3  5 0.5 0.3  5.5 0.5 0.3  6 0.5 0.3  6.5 0.5 0.3  7 0.5 0.3  7.5 0.5 0.3  8 0.5 0.3  8.5 0.5 0.3  9 0.5 0.3  9.5 0.5 0.3  10 0.5 0.3  0 1 0.3  0.5 1 0.3  1 1 0.3  1.5 1 0.3  2 1 0.3  2.5 1 0.3  3 1 0.3  3.5 1 0.3  4 1 0.3  4.5 1 0.3  5 1 0.3  5.5 1 0.3  6 1 0.3  6.5 1 0.3  7 1 0.3  7.5 1 0.3  8 1 0.3  8.5 1 0.3  9 1 0.3  9.5 1 0.3  10 1 0.3  0 1.5 0.3  0.5 1.5 0.3  1 1.5 0.3  1.5 1.5 0.3  2 1.5 0.3  2.5 1.5 0.3  3 1.5 0.3  3.5 1.5 0.3  4 1.5 0.3  4.5 1.5 0.3  5 1.5 0.3  5.5 1.5 0.3  6 1.5 0.3  6.5 1.5 0.3  7 1.5 0.3  7.5 1.5 0.3  8 1.5 0.3  8.5 1.5 0.3  9 1.5 0.3  9.5 1.5 0.3  10 1.5 0.3  0 2 0.3  0.5 2 0.3  1 2 0.3  1.5 2 0.3  2 2 0.3  2.5 2 0.3  3 2 0.3  3.5 2 0.3  4 2 0.3  4.5 2 0.3  5 2 0.3  5.5 2 0.3  6 2 0.3  6.5 2 0.3  7 2 0.3  7.5 2 0.3  8 2 0.3  8.5 2 0.3  9 2 0.3  9.5 2 0.3  10 2 0.3  0 2.5 0.3  0.5 2.5 0.3  1 2.5 0.3  1.5 2.5 0.3  2 2.5 0.3  2.5 2.5 0.3  3 2.5 0.3  3.5 2.5 0.3  4 2.5 0.3  4.5 2.5 0.3  5 2.5 0.3  5.5 2.5 0.3  6 2.5 0.3  6.5 2.5 0.3  7 2.5 0.3  7.5 2.5 0.3  8 2.5 0.3  8.5 2.5 0.3  9 2.5 0.3  9.5 2.5 0.3  10 2.5 0.3  0 3 0.3  0.5 3 0.3  1 3 0.3  1.5 3 0.3  2 3 0.3  2.5 3 0.3  3 3 0.3  3.5 3 0.3  4 3 0.3  4.5 3 0.3  5 3 0.3  5.5 3 0.3  6 3 0.3  6.5 3 0.3  7 3 0.3  7.5 3 0.3  8 3 0.3  8.5 3 0.3  9 3 0.3  9.5 3 0.3  10 3 0.3  0 0 0.4  0.5 0 0.4  1 0 0.4  1.5 0 0.4  2 0 0.4  2.5 0 0.4  3 0 0.4  3.5 0 0.4  4 0 0.4  4.5 0 0.4  5 0 0.4  5.5 0 0.4  6 0 0.4  6.5 0 0.4  7 0 0.4  7.5 0 0.4  8 0 0.4  8.5 0 0.4  9 0 0.4  9.5 0 0.4  10 0 0.4  0 0.5 0.4  0.5 0.5 0.4  1 0.5 0.4  1.5 0.5 0.4  2 0.5 0.4  2.5 0.5 0.4  3 0.5 0.4  3.5 0.5 0.4  4 0.5 0.4  4.5 0.5 0.4  5 0.5 0.4  5.5 0.5 0.4  6 0.5 0.4  6.5 0.5 0.4  7 0.5 0.4  7.5 0.5 0.4  8 0.5 0.4  8.5 0.5 0.4  9 0.5 0.4  9.5 0.5 0.4  10 0.5 0.4  0 1 0.4  0.5 1 0.4  1 1 0.4  1.5 1 0.4  2 1 0.4  2.5 1 0.4  3 1 0.4  3.5 1 0.4  4 1 0.4  4.5 1 0.4  5 1 0.4  5.5 1 0.4  6 1 0.4  6.5 1 0.4  7 1 0.4  7.5 1 0.4  8 1 0.4  8.5 1 0.4  9 1 0.4  9.5 1 0.4  10 1 0.4  0 1.5 0.4  0.5 1.5 0.4  1 1.5 0.4  1.5 1.5 0.4  2 1.5 0.4  2.5 1.5 0.4  3 1.5 0.4  3.5 1.5 0.4  4 1.5 0.4  4.5 1.5 0.4  5 1.5 0.4  5.5 1.5 0.4  6 1.5 0.4  6.5 1.5 0.4  7 1.5 0.4  7.5 1.5 0.4  8 1.5 0.4  8.5 1.5 0.4  9 1.5 0.4  9.5 1.5 0.4  10 1.5 0.4  0 2 0.4  0.5 2 0.4  1 2 0.4  1.5 2 0.4  2 2 0.4  2.5 2 0.4  3 2 0.4  3.5 2 0.4  4 2 0.4  4.5 2 0.4  5 2 0.4  5.5 2 0.4  6 2 0.4  6.5 2 0.4  7 2 0.4  7.5 2 0.4  8 2 0.4  8.5 2 0.4  9 2 0.4  9.5 2 0.4  10 2 0.4  0 2.5 0.4  0.5 2.5 0.4  1 2.5 0.4  1.5 2.5 0.4  2 2.5 0.4  2.5 2.5 0.4  3 2.5 0.4  3.5 2.5 0.4  4 2.5 0.4  4.5 2.5 0.4  5 2.5 0.4  5.5 2.5 0.4  6 2.5 0.4  6.5 2.5 0.4  7 2.5 0.4  7.5 2.5 0.4  8 2.5 0.4  8.5 2.5 0.4  9 2.5 0.4  9.5 2.5 0.4  10 2.5 0.4  0 3 0.4  0.5 3 0.4  1 3 0.4  1.5 3 0.4  2 3 0.4  2.5 3 0.4  3 3 0.4  3.5 3 0.4  4 3 0.4  4.5 3 0.4  5 3 0.4  5.5 3 0.4  6 3 0.4  6.5 3 0.4  7 3 0.4  7.5 3 0.4  8 3 0.4  8.5 3 0.4  9 3 0.4  9.5 3 0.4  10 3 0.4  0 0 0.5  0.5 0 0.5  1 0 0.5  1.5 0 0.5  2 0 0.5  2.5 0 0.5  3 0 0.5  3.5 0 0.5  4 0 0.5  4.5 0 0.5  5 0 0.5  5.5 0 0.5  6 0 0.5  6.5 0 0.5  7 0 0.5  7.5 0 0.5  8 0 0.5  8.5 0 0.5  9 0 0.5  9.5 0 0.5  10 0 0.5  0 0.5 0.5  0.5 0.5 0.5  1 0.5 0.5  1.5 0.5 0.5  2 0.5 0.5  2.5 0.5 0.5  3 0.5 0.5  3.5 0.5 0.5  4 0.5 0.5  4.5 0.5 0.5  5 0.5 0.5  5.5 0.5 0.5  6 0.5 0.5  6.5 0.5 0.5  7 0.5 0.5  7.5 0.5 0.5  8 0.5 0.5  8.5 0.5 0.5  9 0.5 0.5  9.5 0.5 0.5  10 0.5 0.5  0 1 0.5  0.5 1 0.5  1 1 0.5  1.5 1 0.5  2 1 0.5  2.5 1 0.5  3 1 0.5  3.5 1 0.5  4 1 0.5  4.5 1 0.5  5 1 0.5  5.5 1 0.5  6 1 0.5  6.5 1 0.5  7 1 0.5  7.5 1 0.5  8 1 0.5  8.5 1 0.5  9 1 0.5  9.5 1 0.5  10 1 0.5  0 1.5 0.5  0.5 1.5 0.5  1 1.5 0.5  1.5 1.5 0.5  2 1.5 0.5  2.5 1.5 0.5  3 1.5 0.5  3.5 1.5 0.5  4 1.5 0.5  4.5 1.5 0.5  5 1.5 0.5  5.5 1.5 0.5  6 1.5 0.5  6.5 1.5 0.5  7 1.5 0.5  7.5 1.5 0.5  8 1.5 0.5  8.5 1.5 0.5  9 1.5 0.5  9.5 1.5 0.5  10 1.5 0.5  0 2 0.5  0.5 2 0.5  1 2 0.5  1.5 2 0.5  2 2 0.5  2.5 2 0.5  3 2 0.5  3.5 2 0.5  4 2 0.5  4.5 2 0.5  5 2 0.5  5.5 2 0.5  6 2 0.5  6.5 2 0.5  7 2 0.5  7.5 2 0.5  8 2 0.5  8.5 2 0.5  9 2 0.5  9.5 2 0.5  10 2 0.5  0 2.5 0.5  0.5 2.5 0.5  1 2.5 0.5  1.5 2.5 0.5  2 2.5 0.5  2.5 2.5 0.5  3 2.5 0.5  3.5 2.5 0.5  4 2.5 0.5  4.5 2.5 0.5  5 2.5 0.5  5.5 2.5 0.5  6 2.5 0.5  6.5 2.5 0.5  7 2.5 0.5  7.5 2.5 0.5  8 2.5 0.5  8.5 2.5 0.5  9 2.5 0.5  9.5 2.5 0.5  10 2.5 0.5  0 3 0.5  0.5 3 0.5  1 3 0.5  1.5 3 0.5  2 3 0.5  2.5 3 0.5  3 3 0.5  3.5 3 0.5  4 3 0.5  4.5 3 0.5  5 3 0.5  5.5 3 0.5  6 3 0.5  6.5 3 0.5  7 3 0.5  7.5 3 0.5  8 3 0.5  8.5 3 0.5  9 3 0.5  9.5 3 0.5  10 3 0.5  </DataArray>
</Points>
<Cells>
[...]
<PointData  Vectors="f_7-0"> 
<DataArray  type="Float64"  Name="f_7-0"  NumberOfComponents="3" format="ascii">0.0000000000000000e+00 0.0000000000000000e+00 0.0000000000000000e+00  1.4339089857343243e-01 1.1104434333993947e-01 2.6474994260788136e-02  2.7577890386607190e-01 1.9814647673262153e-01 2.4118018794309349e-02  4.1239885564718842e-01 2.5779049949825938e-01 2.6921782346626667e-02  5.8632235498229157e-01 2.8086190986548576e-01 3.1066852769369532e-02  7.9024504608755941e-01 2.7999343086264816e-01 3.2246275512207018e-02  1.0010545447036623e+00 2.7600244716046390e-01 3.1914222668519197e-02  1.2095251660035260e+00 2.7519391788995867e-01 3.1664282809011179e-02  1.4163014641590166e+00 2.7577106390717676e-01 3.1618718843819914e-02  1.6228807489086983e+00 2.7629702644026571e-01 3.1634253734508101e-02  1.8296839929109556e+00 2.7653320804618520e-01 3.1648322362843706e-02  2.0366474245035513e+00 2.7661199810896242e-01 3.1652737899363632e-02  2.2436674120251174e+00 2.7664238692118515e-01 3.1652961651014465e-02  2.4506994923740715e+00 2.7666212709781496e-01 3.1652670956360332e-02  2.6577349779440143e+00 2.7667683390198722e-01 3.1652701200596586e-02  2.8647740656010545e+00 2.7668641283432438e-01 3.1652882975823748e-02  3.0718165022332165e+00 2.7669187805099832e-01 3.1653032626594739e-02  3.2788611542428443e+00 2.7669480236340849e-01 3.1653114198754391e-02  3.4859069885180669e+00 2.7669634242321101e-01 3.1653151948778026e-02  3.6929533829182870e+00 2.7669710161073846e-01 3.1653168610081585e-02  3.9000000000000004e+00 2.7669733177341344e-01 3.1653173424664532e-02  0.0000000000000000e+00 0.0000000000000000e+00 0.0000000000000000e+00  7.7221277024767568e-02 4.1827024796760696e-02 2.7927430114343992e-02  2.2257224798099443e-01 1.4040360461579182e-01 2.7965098843756732e-02  3.8696882803127614e-01 1.9030127290189180e-01 3.0365772718467885e-02  5.8377064165493264e-01 2.0023612195135423e-01 3.1881430200161827e-02  7.9334479718572437e-01 1.9499664098231820e-01 3.1772481880321592e-02  1.0022161673684431e+00 1.9199153679707037e-01 3.1693525842431354e-02  1.2092846252355345e+00 1.9209363538840390e-01 3.1696048704346669e-02  1.4159111215286826e+00 1.9282248879852920e-01 3.1698390782921172e-02  1.6226797839070246e+00 1.9325350075832859e-01 3.1703276817883666e-02  1.8296149454122270e+00 1.9340995008803641e-01 3.1705820824353179e-02  2.0366244986214443e+00 1.9345855631107203e-01 3.1706582006010738e-02  2.2436544601996236e+00 1.9348229629005065e-01 3.1706826116783986e-02  2.4506895071434651e+00 1.9350055076745704e-01 3.1707015363644432e-02  2.6577280757458293e+00 1.9351374947971184e-01 3.1707188659472522e-02  2.8647699872587142e+00 1.9352180437137337e-01 3.1707311848769612e-02  3.0718142983435430e+00 1.9352621206409606e-01 3.1707384923819942e-02  3.2788599860311471e+00 1.9352855660383730e-01 3.1707425113029229e-02  3.4859063787376128e+00 1.9352981286029106e-01 3.1707446800344735e-02  3.6929531170523529e+00 1.9353044348218604e-01 3.1707457538356749e-02  3.9000000000000004e+00 1.9353063809616730e-01 3.1707460715631790e-02  0.0000000000000000e+00 0.0000000000000000e+00 0.0000000000000000e+00  3.8846709624766294e-02 8.0493283205865032e-03 2.2074322990048901e-02  1.7521751417217110e-01 7.7182969105056204e-02 3.2823397488077791e-02  3.6868782987494431e-01 1.1177541976451033e-01 3.2426555480187531e-02  5.8352567628665253e-01 1.1361288149514076e-01 3.1549705584348789e-02  7.9577548593998404e-01 1.0983101901292400e-01 3.1290588369578286e-02  1.0028553150504265e+00 1.0879177830177099e-01 3.1614680448250471e-02  1.2089800256869776e+00 1.0925671302636421e-01 3.1761307379839378e-02  1.4155709954640174e+00 1.0983926926885772e-01 3.1776242560205822e-02  1.6225134072071516e+00 1.1014193015373998e-01 3.1766071277961466e-02  1.8295560868251315e+00 1.1025358596768092e-01 3.1760232244712583e-02  2.0366022853332546e+00 1.1029580782149240e-01 3.1759757755732559e-02  2.2436410663585908e+00 1.1032024573004970e-01 3.1760718798039704e-02  2.4506796932290280e+00 1.1033782677115755e-01 3.1761392382216085e-02  2.6577215989929339e+00 1.1034945431643779e-01 3.1761634115257009e-02  2.8647662284218049e+00 1.1035625813941606e-01 3.1761687318821889e-02  3.0718122584668124e+00 1.1035998332240948e-01 3.1761703578745581e-02  3.2788588907008198e+00 1.1036200770892149e-01 3.1761719636025559e-02  3.4859058019106719e+00 1.1036311102439691e-01 3.1761733384105019e-02  3.6929528645520633e+00 1.1036366696042996e-01 3.1761741162427214e-02  3.9000000000000004e+00 1.1036383767136292e-01 3.1761743756470950e-02  0.0000000000000000e+00 0.0000000000000000e+00 0.0000000000000000e+00  3.2537965172637476e-02 5.6283208011043964e-03 1.7134359346744839e-02  1.4379370394327171e-01 7.9672567012116415e-03 3.7097117501599150e-02  3.6059446493009012e-01 2.3057851307235519e-02 3.2289390111384368e-02  5.8409330489214806e-01 2.3647782100680886e-02 3.1200404308128506e-02  7.9616550125713414e-01 2.4997058154377898e-02 3.1301296942322726e-02  1.0027116151003177e+00 2.6043821777801405e-02 3.1680532181412979e-02  1.2086817786042372e+00 2.6546308044406691e-02 3.1823254505241427e-02  1.4153473726847292e+00 2.6815109737657057e-02 3.1838671482451161e-02  1.6223967327490234e+00 2.6977025633887319e-02 3.1823152603253323e-02  1.8295031686759520e+00 2.7070978795467698e-02 3.1814938068648151e-02  2.0365760311355525e+00 2.7124510198403895e-02 3.1814129358431871e-02  2.2436254414280570e+00 2.7155464974669131e-02 3.1815206604276398e-02  2.4506698162838343e+00 2.7173438288269434e-02 3.1815889774248110e-02  2.6577156123620238e+00 2.7183813801415567e-02 3.1816055618585443e-02  2.8647627881106508e+00 2.7189782082689889e-02 3.1816041628293337e-02  3.0718103352972466e+00 2.7193207257800403e-02 3.1816019839758777e-02  3.2788578275239533e+00 2.7195155882793819e-02 3.1816017200457382e-02  3.4859052371698818e+00 2.7196231791315331e-02 3.1816021650909687e-02  3.6929526187484849e+00 2.7196767662603615e-02 3.1816024790976845e-02  3.9000000000000004e+00 2.7196929857946923e-02 3.1816026147814418e-02  0.0000000000000000e+00 0.0000000000000000e+00 0.0000000000000000e+00  4.0101204854705058e-02 -1.3768040400054587e-03 2.3090558609180235e-02  1.5664046467605253e-01 -4.8762591804582624e-02 3.4497742849736966e-02  3.6092094111388723e-01 -7.2062014110399225e-02 3.2013793396874227e-02  5.8257392590473922e-01 -6.5982323940074930e-02 3.1341365595620903e-02  7.9427279054648503e-01 -5.9700108070594934e-02 3.1645223590912500e-02  1.0017867165827852e+00 -5.6843991859146348e-02 3.1822421525479053e-02  1.2084215506397233e+00 -5.6260700350600351e-02 3.1883024346001099e-02  1.4152598960103027e+00 -5.6251431438376381e-02 3.1888708313733027e-02  1.6223314230866592e+00 -5.6210907716266717e-02 3.1877534032141726e-02  1.8294518303027845e+00 -5.6125164371582645e-02 3.1871375473855351e-02  2.0365425372443982e+00 -5.6054357152375119e-02 3.1870141393706766e-02  2.2436064108766316e+00 -5.6013652601232838e-02 3.1870391439659362e-02  2.4506595801414259e+00 -5.5993517731882374e-02 3.1870546581755248e-02  2.6577099930344001e+00 -5.5983332598548520e-02 3.1870497571369102e-02  2.8647595599990994e+00 -5.5977562758267735e-02 3.1870409917404849e-02  3.0718084462654054e+00 -5.5974070588951000e-02 3.1870353595960556e-02  3.2788567458078366e+00 -5.5971991583714444e-02 3.1870327670823151e-02  3.4859046587513354e+00 -5.5970830389675555e-02 3.1870316822358677e-02  3.6929523695146740e+00 -5.5970258442560525e-02 3.1870311957226401e-02  3.9000000000000004e+00 -5.5970088211250268e-02 3.1870310516323566e-02  0.0000000000000000e+00 0.0000000000000000e+00 0.0000000000000000e+00  6.5765166610722750e-02 -2.5908099406591785e-02 2.9110042337922259e-02  2.0484942366054040e-01 -1.0980075315533673e-01 2.8360581063194085e-02  3.7082588665129257e-01 -1.5816147295133237e-01 3.0461550181986655e-02  5.7860503054877055e-01 -1.5414739955649789e-01 3.2006960275185597e-02  7.9062954857225132e-01 -1.4462401662716642e-01 3.2121726147196758e-02  1.0002953512285160e+00 -1.4035738367421552e-01 3.2024865703954047e-02  1.2081444151934844e+00 -1.3935768785123903e-01 3.1955249200015634e-02  1.4152604684710179e+00 -1.3936445468476399e-01 3.1933807308619500e-02  1.6223062427994148e+00 -1.3939350179826185e-01 3.1930086497620629e-02  1.8294016336338581e+00 -1.3932203815956695e-01 3.1928709688855091e-02  2.0365023394144797e+00 -1.3923980249399467e-01 3.1927355638140913e-02  2.2435838573928759e+00 -1.3918872407892782e-01 3.1926169290918682e-02  2.4506485563422276e+00 -1.3916390495044650e-01 3.1925399952313534e-02  2.6577043958117654e+00 -1.3915211866805424e-01 3.1925002687444907e-02  2.8647563620138592e+00 -1.3914570800831302e-01 3.1924810370402568e-02  3.0718065097328906e+00 -1.3914180284025715e-01 3.1924710396207506e-02  3.2788556065265855e+00 -1.3913942598968426e-01 3.1924653602620708e-02  3.4859040454421057e+00 -1.3913807961168123e-01 3.1924621116715575e-02  3.6929521066477546e+00 -1.3913741457577194e-01 3.1924604492424624e-02  3.9000000000000004e+00 -1.3913721840652449e-01 3.1924599004031023e-02  0.0000000000000000e+00 0.0000000000000000e+00 0.0000000000000000e+00  1.2544384766575437e-01 -8.3104683942184066e-02 2.7438922936805315e-02  2.6076378193074340e-01 -1.7311781862572762e-01 2.3067633381405231e-02  3.9319561146317716e-01 -2.2589296292362218e-01 2.7214172984758846e-02  5.7396137107906930e-01 -2.3912701207537879e-01 3.2676963272257435e-02  7.8615938702919608e-01 -2.3027618482692633e-01 3.2476062779710435e-02  9.9847886038541189e-01 -2.2473670764807968e-01 3.2256710709281711e-02  1.2077632657088773e+00 -2.2282636532362204e-01 3.2060507761957638e-02  1.4152724626472288e+00 -2.2253520272738203e-01 3.1991525711053778e-02  1.6223006916953482e+00 -2.2255652482254876e-01 3.1981639346161383e-02  1.8293541323672244e+00 -2.2251164218684100e-01 3.1984615009481035e-02  2.0364586463572443e+00 -2.2243099238612704e-01 3.1984383263849177e-02  2.2435585405372085e+00 -2.2237061951809289e-01 3.1982208689029561e-02  2.4506363519580669e+00 -2.2233820879770055e-01 3.1980489157242865e-02  2.6576984053451489e+00 -2.2232262594651819e-01 3.1979622237609966e-02  2.8647530003189066e+00 -2.2231461790648721e-01 3.1979253865444819e-02  3.0718044627550798e+00 -2.2230996246155812e-01 3.1979085891221518e-02  3.2788543880239183e+00 -2.2230714155604034e-01 3.1978991520655087e-02  3.4859033845350731e+00 -2.2230551759444384e-01 3.1978934342506281e-02  3.6929518223852349e+00 -2.2230470251093307e-01 3.1978903652742030e-02  3.9000000000000004e+00 -2.2230445855594477e-01 3.1978893125414548e-02  0.0000000000000000e+00 0.0000000000000000e+00 0.0000000000000000e+00  1.4421748083718791e-01 1.1068381329483215e-01 1.6498440606640567e-02  2.7556095993858126e-01 1.9755158486224383e-01 1.4265431414332773e-02  4.1226220606630976e-01 2.5714425884104175e-01 1.5667184005294144e-02  5.8629425696139226e-01 2.8070979572520577e-01 1.8303268133449443e-02  7.9024407960331899e-01 2.8009149367692915e-01 1.9076021953327305e-02  1.0010578132468260e+00 2.7604509814516121e-01 1.8820239012871706e-02  1.2095259524075648e+00 2.7518688531429608e-01 1.8639617221841945e-02  1.4163011700354029e+00 2.7575488284291644e-01 1.8606308522493079e-02  1.6228805806620006e+00 2.7628292665264886e-01 1.8615061885927587e-02  1.8296839891777346e+00 2.7652130942847364e-01 1.8623262576552720e-02  2.0366474531778276e+00 2.7660078036339553e-01 1.8625477971344742e-02  2.2436674227471052e+00 2.7663115352184947e-01 1.8625254244358135e-02  2.4506994891338412e+00 2.7665079661864561e-01 1.8624888222100015e-02  2.6577349720468315e+00 2.7666547331201852e-01 1.8624827133024238e-02  2.8647740614309063e+00 2.7667506179423484e-01 1.8624906509109938e-02  3.0718164999218116e+00 2.7668054061290492e-01 1.8624983269868573e-02  3.2788611530385254e+00 2.7668347219758221e-01 1.8625024958192071e-02  3.4859069879513638e+00 2.7668501499457004e-01 1.8625043476887416e-02  3.6929533828226657e+00 2.7668577515575371e-01 1.8625051446294127e-02  3.9000000000000004e+00 2.7668600617564881e-01 1.8625054033801582e-02  0.0000000000000000e+00 0.0000000000000000e+00 0.0000000000000000e+00  7.7698703206053668e-02 4.3272624675500221e-02 1.6799667133516868e-02  2.2247224823304734e-01 1.3970566237246676e-01 1.6580968801160945e-02  3.8692346522755061e-01 1.8981761839379749e-01 1.7861304704239654e-02  5.8374646501456340e-01 2.0012394853235840e-01 1.8828042568571731e-02  7.9337280575666880e-01 1.9501789500526046e-01 1.8732747570015709e-02  1.0022230258442355e+00 1.9201578289088203e-01 1.8679195484827337e-02  1.2092819785724511e+00 1.9209269049263941e-01 1.8677734738531619e-02  1.4159096706723897e+00 1.9280998191021198e-01 1.8675647286159010e-02  1.6226796705145445e+00 1.9324009275306139e-01 1.8677585186089946e-02  1.8296151536260798e+00 1.9339782991534246e-01 1.8678764028143675e-02  2.0366246291196246e+00 1.9344713045584361e-01 1.8679036709389391e-02  2.2436544943360737e+00 1.9347099936237919e-01 1.8679073563379552e-02  2.4506895051100908e+00 1.9348922020884596e-01 1.8679123858518935e-02  2.6577280705732704e+00 1.9350239637577396e-01 1.8679196439806117e-02  2.8647699855174835e+00 1.9351045498285749e-01 1.8679256112456195e-02  3.0718142983389343e+00 1.9351487312957344e-01 1.8679293467174670e-02  3.2788599862279573e+00 1.9351722494368190e-01 1.8679314446690670e-02  3.4859063788426936e+00 1.9351848472433111e-01 1.8679325877093735e-02  3.6929531172096932e+00 1.9351911688355450e-01 1.8679331584546377e-02  3.9000000000000004e+00 1.9351931193628658e-01 1.8679333321213531e-02  0.0000000000000000e+00 0.0000000000000000e+00 0.0000000000000000e+00  3.7354995372891574e-02 8.5653214761608042e-03 1.3119499353906690e-02  1.7598183851895427e-01 7.7495252392395853e-02 1.9363359803419907e-02  3.6876533756098917e-01 1.1156688323650778e-01 1.9125930493919058e-02  5.8367264711826616e-01 1.1353192549872125e-01 1.8603170676868341e-02  7.9580191608452655e-01 1.0982697435384156e-01 1.8420725194902079e-02  1.0028362553522217e+00 1.0880096744911467e-01 1.8640532194159436e-02  1.2089714220123740e+00 1.0925206206917376e-01 1.8732238695266676e-02  1.4155705405201269e+00 1.0982705995929082e-01 1.8741712266684852e-02  1.6225145689333551e+00 1.1012908462919481e-01 1.8735968406823213e-02  1.8295567340152614e+00 1.1024163831827651e-01 1.8732492020049608e-02  2.0366024345023495e+00 1.1028436452283460e-01 1.8732296440795462e-02  2.2436410542446903e+00 1.1030891154888096e-01 1.8732937965222064e-02  2.4506796760742526e+00 1.1032648239541970e-01 1.8733375188624165e-02  2.6577215996133625e+00 1.1033810193279034e-01 1.8733534054615964e-02  2.8647662347886431e+00 1.1034491204026356e-01 1.8733571250397207e-02  3.0718122629871174e+00 1.1034864634790874e-01 1.8733583445376945e-02  3.2788588926957276e+00 1.1035067688047000e-01 1.8733594475372175e-02  3.4859058026594414e+00 1.1035178332440526e-01 1.8733603509971618e-02  3.6929528648952834e+00 1.1035234071663733e-01 1.8733608583978024e-02  3.9000000000000004e+00 1.1035251183309423e-01 1.8733610238175977e-02  0.0000000000000000e+00 0.0000000000000000e+00 0.0000000000000000e+00  3.1378645265373220e-02 5.4064681227067087e-03 1.0194311493190432e-02  1.4346539570889830e-01 7.9051002414745990e-03 2.1957280539028724e-02  3.6100880587346118e-01 2.3026940756291001e-02 1.9008232200222804e-02  5.8426980077632118e-01 2.3547112755497750e-02 1.8387782771517595e-02  7.9614652645782724e-01 2.4961869002747689e-02 1.8459365620671919e-02  1.0026832448462257e+00 2.6030263124296061e-02 1.8701983201483564e-02  1.2086733284696687e+00 2.6536754726856342e-02 1.8787092398099590e-02  1.4153485742391660e+00 2.6803668973893732e-02 1.8799473769336435e-02  1.6223986841101856e+00 2.6964867142354475e-02 1.8791287326435573e-02  1.8295039231634553e+00 2.7059057055286610e-02 1.8786787013210342e-02  2.0365761213079718e+00 2.7112907619535598e-02 1.8786526504960301e-02  2.2436253962966068e+00 2.7144022957081983e-02 1.8787280650018480e-02  2.4506697999616938e+00 2.7162055693841638e-02 1.8787748948309646e-02  2.6577156221711915e+00 2.7172453897843549e-02 1.8787877827620328e-02  2.8647628004549439e+00 2.7178435025294347e-02 1.8787883809598033e-02  3.0718103422217613e+00 2.7181869336837489e-02 1.8787877746060274e-02  3.2788578303229952e+00 2.7183823998412928e-02 1.8787879588809935e-02  3.4859052382095830e+00 2.7184903398968573e-02 1.8787883936993668e-02  3.6929526191178632e+00 2.7185441091000195e-02 1.8787886628972076e-02  3.9000000000000004e+00 2.7185603822172815e-02 1.8787887636896667e-02  0.0000000000000000e+00 0.0000000000000000e+00 0.0000000000000000e+00  3.9063394658101283e-02 -2.1920911091661177e-03 1.3630532124576898e-02  1.5620902899826153e-01 -4.8315482555375593e-02 2.0511960600260223e-02  3.6161664840203878e-01 -7.2018962978564735e-02 1.8813707441626883e-02  5.8262369937530645e-01 -6.6069086422681764e-02 1.8546524811784346e-02  7.9424531826825118e-01 -5.9759969824878294e-02 1.8705047560495056e-02  1.0017670469969053e+00 -5.6874737731446648e-02 1.8812473551922344e-02  1.2084174133491070e+00 -5.6276009921168803e-02 1.8847662805915814e-02  1.4152618777797503e+00 -5.6262871727014455e-02 1.8852423009698412e-02  1.6223332576077016e+00 -5.6222540029206604e-02 1.8846032356971479e-02  1.8294524742016132e+00 -5.6137048664701442e-02 1.8842635033394849e-02  2.0365426196852292e+00 -5.6066116222776255e-02 1.8841986436147325e-02  2.2436063958634715e+00 -5.6025210110025682e-02 1.8842173129052349e-02  2.4506595881916304e+00 -5.6004948038618205e-02 1.8842285274730239e-02  2.6577100139049397e+00 -5.5994706697372686e-02 1.8842266950983518e-02  2.8647595761578173e+00 -5.5988914287758505e-02 1.8842220887819061e-02  3.0718084547067277e+00 -5.5985411157341097e-02 1.8842190417296196e-02  3.2788567495088445e+00 -5.5983325450895238e-02 1.8842176422208132e-02  3.4859046603189334e+00 -5.5982160067385787e-02 1.8842170636602939e-02  3.6929523700268225e+00 -5.5981585779692082e-02 1.8842168078612269e-02  3.9000000000000004e+00 -5.5981414800977035e-02 1.8842167278539001e-02  0.0000000000000000e+00 0.0000000000000000e+00 0.0000000000000000e+00  6.5408383429519421e-02 -2.6227516040294632e-02 1.7232098088959799e-02  2.0516304577100197e-01 -1.0965756346714219e-01 1.6880422821888248e-02  3.7085157537989760e-01 -1.5783549635545455e-01 1.8036379609590796e-02  5.7865910908858520e-01 -1.5412555901799219e-01 1.9016229075926538e-02  7.9062174669714314e-01 -1.4468603874196362e-01 1.9035013001144602e-02  1.0002929374432339e+00 -1.4039889389540056e-01 1.8965280682842259e-02  1.2081466911756205e+00 -1.3937984090582520e-01 1.8919025348956672e-02  1.4152622540997466e+00 -1.3937756067294438e-01 1.8903506730922667e-02  1.6223072486486176e+00 -1.3940482381228925e-01 1.8900561080137209e-02  1.8294020369764301e+00 -1.3933368056427473e-01 1.8899394838844511e-02  2.0365024793835209e+00 -1.3925157438640218e-01 1.8898355015164608e-02  2.2435839274426552e+00 -1.3920035634275071e-01 1.8897512223892098e-02  2.4506486046592091e+00 -1.3917538391858447e-01 1.8896984463955647e-02  2.6577044274198558e+00 -1.3916351251783426e-01 1.8896717241413691e-02  2.8647563801422420e+00 -1.3915706612408330e-01 1.8896589074740466e-02  3.0718065192889252e+00 -1.3915314629751391e-01 1.8896522872010699e-02  3.2788556114203415e+00 -1.3915076185679404e-01 1.8896485590974645e-02  3.4859040478346737e+00 -1.3914941078557233e-01 1.8896464463732339e-02  3.6929521074861476e+00 -1.3914874302547739e-01 1.8896453761030062e-02  3.9000000000000004e+00 -1.3914854583854805e-01 1.8896450254129914e-02  0.0000000000000000e+00 0.0000000000000000e+00 0.0000000000000000e+00  1.2504866537593867e-01 -8.3915251641251951e-02 1.7057148801796242e-02  2.6134213076213908e-01 -1.7301240084437308e-01 1.3852611509594985e-02  3.9292299129702757e-01 -2.2523876339997984e-01 1.6291263765727315e-02  5.7393470900731824e-01 -2.3914793201452195e-01 1.9558273056304344e-02  7.8615495675711555e-01 -2.3031063260058232e-01 1.9251433483572007e-02  9.9848633382998131e-01 -2.2478294710374888e-01 1.9137268490850765e-02  1.2077685076826499e+00 -2.2285244762761588e-01 1.9006543265221512e-02  1.4152743522665601e+00 -2.2254999439166043e-01 1.8962937550114495e-02  1.6223013584016890e+00 -2.2256776615319396