<?xml version="1.0"?>
<VTKFile type="UnstructuredGrid"  version="0.1"  >
<UnstructuredGrid>
<Piece  NumberOfPoints="882" NumberOfCells="3600">
<Points>
<DataArray  type="Float64"  NumberOfComponents="3"  format="ascii">0 0 0  0.5 0 0  1 0 0  1.5 0 0  2 0 0  2.5 0 0  3 0 0  3.5 0 0  4 0 0  4.5 0 0  5 0 0  5.5 0 0  6 0 0  6.5 0 0  7 0 0  7.5 0 0  8 0 0  8.5 0 0  9 0 0  9.5 0 0  10 0 0  0 0.5 0  0.5 0.5 0  1 0.5 0  1.5 0.5 0  2 0.5 0  2.5 0.5 0  3 0.5 0  3.5 0.5 0  4 0.5 0  4.5 0.5 0  5 0.5 0  5.5 0.5 0  6 0.5 0  6.5 0.5 0  7 0.5 0  7.5 0.5 0  8 0.5 0  8.5 0.5 0  9 0.5 0  9.5 0.5 0  10 0.5 0  0 1 0  0.5 1 0  1 1 0  1.5 1 0  2 1 0  2.5 1 0  3 1 0  3.5 1 0  4 1 0  4.5 1 0  5 1 0  5.5 1 0  6 1 0  6.5 1 0  7 1 0  7.5 1 0  8 1 0  8.5 1 0  9 1 0  9.5 1 0  10 1 0  0 1.5 0  0.5 1.5 0  1 1.5 0  1.5 1.5 0  2 1.5 0  2.5 1.5 0  3 1.5 0  3.5 1.5 0  4 1.5 0  4.5 1.5 0  5 1.5 0  5.5 1.5 0  6 1.5 0  6.5 1.5 0  7 1.5 0  7.5 1.5 0  8 1.5 0  8.5 1.5 0  9 1.5 0  9.5 1.5 0  10 1.5 0  0 2 0  0.5 2 0  1 2 0  1.5 2 0  2 2 0  2.5 2 0  3 2 0  3.5 2 0  4 2 0  4.5 2 0  5 2 0  5.5 2 0  6 2 0  6.5 2 0  7 2 0  7.5 2 0  8 2 0  8.5 2 0  9 2 0  9.5 2 0  10 2 0  0 2.5 0  0.5 2.5 0  1 2.5 0  1.5 2.5 0  2 2.5 0  2.5 2.5 0  3 2.5 0  3.5 2.5 0  4 2.5 0  4.5 2.5 0  5 2.5 0  5.5 2.5 0  6 2.5 0  6.5 2.5 0  7 2.5 0  7.5 2.5 0  8 2.5 0  8.5 2.5 0  9 2.5 0  9.5 2.5 0  10 2.5 0  0 3 0  0.5 3 0  1 3 0  1.5 3 0  2 3 0  2.5 3 0  3 3 0  3.5 3 0  4 3 0  4.5 3 0  5 3 0  5.5 3 0  6 3 0  6.5 3 0  7 3 0  7.5 3 0  8 3 0  8.5 3 0  9 3 0  9.5 3 0  10 3 0  0 0 0.1  0.5 0 0.1  1 0 0.1  1.5 0 0.1  2 0 0.1  2.5 0 0.1  3 0 0.1  3.5 0 0.1  4 0 0.1  4.5 0 0.1  5 0 0.1  5.5 0 0.1  6 0 0.1  6.5 0 0.1  7 0 0.1  7.5 0 0.1  8 0 0.1  8.5 0 0.1  9 0 0.1  9.5 0 0.1  10 0 0.1  0 0.5 0.1  0.5 0.5 0.1  1 0.5 0.1  1.5 0.5 0.1  2 0.5 0.1  2.5 0.5 0.1  3 0.5 0.1  3.5 0.5 0.1  4 0.5 0.1  4.5 0.5 0.1  5 0.5 0.1  5.5 0.5 0.1  6 0.5 0.1  6.5 0.5 0.1  7 0.5 0.1  7.5 0.5 0.1  8 0.5 0.1  8.5 0.5 0.1  9 0.5 0.1  9.5 0.5 0.1  10 0.5 0.1  0 1 0.1  0.5 1 0.1  1 1 0.1  1.5 1 0.1  2 1 0.1  2.5 1 0.1  3 1 0.1  3.5 1 0.1  4 1 0.1  4.5 1 0.1  5 1 0.1  5.5 1 0.1  6 1 0.1  6.5 1 0.1  7 1 0.1  7.5 1 0.1  8 1 0.1  8.5 1 0.1  9 1 0.1  9.5 1 0.1  10 1 0.1  0 1.5 0.1  0.5 1.5 0.1  1 1.5 0.1  1.5 1.5 0.1  2 1.5 0.1  2.5 1.5 0.1  3 1.5 0.1  3.5 1.5 0.1  4 1.5 0.1  4.5 1.5 0.1  5 1.5 0.1  5.5 1.5 0.1  6 1.5 0.1  6.5 1.5 0.1  7 1.5 0.1  7.5 1.5 0.1  8 1.5 0.1  8.5 1.5 0.1  9 1.5 0.1  9.5 1.5 0.1  10 1.5 0.1  0 2 0.1  0.5 2 0.1  1 2 0.1  1.5 2 0.1  2 2 0.1  2.5 2 0.1  3 2 0.1  3.5 2 0.1  4 2 0.1  4.5 2 0.1  5 2 0.1  5.5 2 0.1  6 2 0.1  6.5 2 0.1  7 2 0.1  7.5 2 0.1  8 2 0.1  8.5 2 0.1  9 2 0.1  9.5 2 0.1  10 2 0.1  0 2.5 0.1  0.5 2.5 0.1  1 2.5 0.1  1.5 2.5 0.1  2 2.5 0.1  2.5 2.5 0.1  3 2.5 0.1  3.5 2.5 0.1  4 2.5 0.1  4.5 2.5 0.1  5 2.5 0.1  5.5 2.5 0.1  6 2.5 0.1  6.5 2.5 0.1  7 2.5 0.1  7.5 2.5 0.1  8 2.5 0.1  8.5 2.5 0.1  9 2.5 0.1  9.5 2.5 0.1  10 2.5 0.1  0 3 0.1  0.5 3 0.1  1 3 0.1  1.5 3 0.1  2 3 0.1  2.5 3 0.1  3 3 0.1  3.5 3 0.1  4 3 0.1  4.5 3 0.1  5 3 0.1  5.5 3 0.1  6 3 0.1  6.5 3 0.1  7 3 0.1  7.5 3 0.1  8 3 0.1  8.5 3 0.1  9 3 0.1  9.5 3 0.1  10 3 0.1  0 0 0.2  0.5 0 0.2  1 0 0.2  1.5 0 0.2  2 0 0.2  2.5 0 0.2  3 0 0.2  3.5 0 0.2  4 0 0.2  4.5 0 0.2  5 0 0.2  5.5 0 0.2  6 0 0.2  6.5 0 0.2  7 0 0.2  7.5 0 0.2  8 0 0.2  8.5 0 0.2  9 0 0.2  9.5 0 0.2  10 0 0.2  0 0.5 0.2  0.5 0.5 0.2  1 0.5 0.2  1.5 0.5 0.2  2 0.5 0.2  2.5 0.5 0.2  3 0.5 0.2  3.5 0.5 0.2  4 0.5 0.2  4.5 0.5 0.2  5 0.5 0.2  5.5 0.5 0.2  6 0.5 0.2  6.5 0.5 0.2  7 0.5 0.2  7.5 0.5 0.2  8 0.5 0.2  8.5 0.5 0.2  9 0.5 0.2  9.5 0.5 0.2  10 0.5 0.2  0 1 0.2  0.5 1 0.2  1 1 0.2  1.5 1 0.2  2 1 0.2  2.5 1 0.2  3 1 0.2  3.5 1 0.2  4 1 0.2  4.5 1 0.2  5 1 0.2  5.5 1 0.2  6 1 0.2  6.5 1 0.2  7 1 0.2  7.5 1 0.2  8 1 0.2  8.5 1 0.2  9 1 0.2  9.5 1 0.2  10 1 0.2  0 1.5 0.2  0.5 1.5 0.2  1 1.5 0.2  1.5 1.5 0.2  2 1.5 0.2  2.5 1.5 0.2  3 1.5 0.2  3.5 1.5 0.2  4 1.5 0.2  4.5 1.5 0.2  5 1.5 0.2  5.5 1.5 0.2  6 1.5 0.2  6.5 1.5 0.2  7 1.5 0.2  7.5 1.5 0.2  8 1.5 0.2  8.5 1.5 0.2  9 1.5 0.2  9.5 1.5 0.2  10 1.5 0.2  0 2 0.2  0.5 2 0.2  1 2 0.2  1.5 2 0.2  2 2 0.2  2.5 2 0.2  3 2 0.2  3.5 2 0.2  4 2 0.2  4.5 2 0.2  5 2 0.2  5.5 2 0.2  6 2 0.2  6.5 2 0.2  7 2 0.2  7.5 2 0.2  8 2 0.2  8.5 2 0.2  9 2 0.2  9.5 2 0.2  10 2 0.2  0 2.5 0.2  0.5 2.5 0.2  1 2.5 0.2  1.5 2.5 0.2  2 2.5 0.2  2.5 2.5 0.2  3 2.5 0.2  3.5 2.5 0.2  4 2.5 0.2  4.5 2.5 0.2  5 2.5 0.2  5.5 2.5 0.2  6 2.5 0.2  6.5 2.5 0.2  7 2.5 0.2  7.5 2.5 0.2  8 2.5 0.2  8.5 2.5 0.2  9 2.5 0.2  9.5 2.5 0.2  10 2.5 0.2  0 3 0.2  0.5 3 0.2  1 3 0.2  1.5 3 0.2  2 3 0.2  2.5 3 0.2  3 3 0.2  3.5 3 0.2  4 3 0.2  4.5 3 0.2  5 3 0.2  5.5 3 0.2  6 3 0.2  6.5 3 0.2  7 3 0.2  7.5 3 0.2  8 3 0.2  8.5 3 0.2  9 3 0.2  9.5 3 0.2  10 3 0.2  0 0 0.3  0.5 0 0.3  1 0 0.3  1.5 0 0.3  2 0 0.3  2.5 0 0.3  3 0 0.3  3.5 0 0.3  4 0 0.3  4.5 0 0.3  5 0 0.3  5.5 0 0.3  6 0 0.3  6.5 0 0.3  7 0 0.3  7.5 0 0.3  8 0 0.3  8.5 0 0.3  9 0 0.3  9.5 0 0.3  10 0 0.3  0 0.5 0.3  0.5 0.5 0.3  1 0.5 0.3  1.5 0.5 0.3  2 0.5 0.3  2.5 0.5 0.3  3 0.5 0.3  3.5 0.5 0.3  4 0.5 0.3  4.5 0.5 0.3  5 0.5 0.3  5.5 0.5 0.3  6 0.5 0.3  6.5 0.5 0.3  7 0.5 0.3  7.5 0.5 0.3  8 0.5 0.3  8.5 0.5 0.3  9 0.5 0.3  9.5 0.5 0.3  10 0.5 0.3  0 1 0.3  0.5 1 0.3  1 1 0.3  1.5 1 0.3  2 1 0.3  2.5 1 0.3  3 1 0.3  3.5 1 0.3  4 1 0.3  4.5 1 0.3  5 1 0.3  5.5 1 0.3  6 1 0.3  6.5 1 0.3  7 1 0.3  7.5 1 0.3  8 1 0.3  8.5 1 0.3  9 1 0.3  9.5 1 0.3  10 1 0.3  0 1.5 0.3  0.5 1.5 0.3  1 1.5 0.3  1.5 1.5 0.3  2 1.5 0.3  2.5 1.5 0.3  3 1.5 0.3  3.5 1.5 0.3  4 1.5 0.3  4.5 1.5 0.3  5 1.5 0.3  5.5 1.5 0.3  6 1.5 0.3  6.5 1.5 0.3  7 1.5 0.3  7.5 1.5 0.3  8 1.5 0.3  8.5 1.5 0.3  9 1.5 0.3  9.5 1.5 0.3  10 1.5 0.3  0 2 0.3  0.5 2 0.3  1 2 0.3  1.5 2 0.3  2 2 0.3  2.5 2 0.3  3 2 0.3  3.5 2 0.3  4 2 0.3  4.5 2 0.3  5 2 0.3  5.5 2 0.3  6 2 0.3  6.5 2 0.3  7 2 0.3  7.5 2 0.3  8 2 0.3  8.5 2 0.3  9 2 0.3  9.5 2 0.3  10 2 0.3  0 2.5 0.3  0.5 2.5 0.3  1 2.5 0.3  1.5 2.5 0.3  2 2.5 0.3  2.5 2.5 0.3  3 2.5 0.3  3.5 2.5 0.3  4 2.5 0.3  4.5 2.5 0.3  5 2.5 0.3  5.5 2.5 0.3  6 2.5 0.3  6.5 2.5 0.3  7 2.5 0.3  7.5 2.5 0.3  8 2.5 0.3  8.5 2.5 0.3  9 2.5 0.3  9.5 2.5 0.3  10 2.5 0.3  0 3 0.3  0.5 3 0.3  1 3 0.3  1.5 3 0.3  2 3 0.3  2.5 3 0.3  3 3 0.3  3.5 3 0.3  4 3 0.3  4.5 3 0.3  5 3 0.3  5.5 3 0.3  6 3 0.3  6.5 3 0.3  7 3 0.3  7.5 3 0.3  8 3 0.3  8.5 3 0.3  9 3 0.3  9.5 3 0.3  10 3 0.3  0 0 0.4  0.5 0 0.4  1 0 0.4  1.5 0 0.4  2 0 0.4  2.5 0 0.4  3 0 0.4  3.5 0 0.4  4 0 0.4  4.5 0 0.4  5 0 0.4  5.5 0 0.4  6 0 0.4  6.5 0 0.4  7 0 0.4  7.5 0 0.4  8 0 0.4  8.5 0 0.4  9 0 0.4  9.5 0 0.4  10 0 0.4  0 0.5 0.4  0.5 0.5 0.4  1 0.5 0.4  1.5 0.5 0.4  2 0.5 0.4  2.5 0.5 0.4  3 0.5 0.4  3.5 0.5 0.4  4 0.5 0.4  4.5 0.5 0.4  5 0.5 0.4  5.5 0.5 0.4  6 0.5 0.4  6.5 0.5 0.4  7 0.5 0.4  7.5 0.5 0.4  8 0.5 0.4  8.5 0.5 0.4  9 0.5 0.4  9.5 0.5 0.4  10 0.5 0.4  0 1 0.4  0.5 1 0.4  1 1 0.4  1.5 1 0.4  2 1 0.4  2.5 1 0.4  3 1 0.4  3.5 1 0.4  4 1 0.4  4.5 1 0.4  5 1 0.4  5.5 1 0.4  6 1 0.4  6.5 1 0.4  7 1 0.4  7.5 1 0.4  8 1 0.4  8.5 1 0.4  9 1 0.4  9.5 1 0.4  10 1 0.4  0 1.5 0.4  0.5 1.5 0.4  1 1.5 0.4  1.5 1.5 0.4  2 1.5 0.4  2.5 1.5 0.4  3 1.5 0.4  3.5 1.5 0.4  4 1.5 0.4  4.5 1.5 0.4  5 1.5 0.4  5.5 1.5 0.4  6 1.5 0.4  6.5 1.5 0.4  7 1.5 0.4  7.5 1.5 0.4  8 1.5 0.4  8.5 1.5 0.4  9 1.5 0.4  9.5 1.5 0.4  10 1.5 0.4  0 2 0.4  0.5 2 0.4  1 2 0.4  1.5 2 0.4  2 2 0.4  2.5 2 0.4  3 2 0.4  3.5 2 0.4  4 2 0.4  4.5 2 0.4  5 2 0.4  5.5 2 0.4  6 2 0.4  6.5 2 0.4  7 2 0.4  7.5 2 0.4  8 2 0.4  8.5 2 0.4  9 2 0.4  9.5 2 0.4  10 2 0.4  0 2.5 0.4  0.5 2.5 0.4  1 2.5 0.4  1.5 2.5 0.4  2 2.5 0.4  2.5 2.5 0.4  3 2.5 0.4  3.5 2.5 0.4  4 2.5 0.4  4.5 2.5 0.4  5 2.5 0.4  5.5 2.5 0.4  6 2.5 0.4  6.5 2.5 0.4  7 2.5 0.4  7.5 2.5 0.4  8 2.5 0.4  8.5 2.5 0.4  9 2.5 0.4  9.5 2.5 0.4  10 2.5 0.4  0 3 0.4  0.5 3 0.4  1 3 0.4  1.5 3 0.4  2 3 0.4  2.5 3 0.4  3 3 0.4  3.5 3 0.4  4 3 0.4  4.5 3 0.4  5 3 0.4  5.5 3 0.4  6 3 0.4  6.5 3 0.4  7 3 0.4  7.5 3 0.4  8 3 0.4  8.5 3 0.4  9 3 0.4  9.5 3 0.4  10 3 0.4  0 0 0.5  0.5 0 0.5  1 0 0.5  1.5 0 0.5  2 0 0.5  2.5 0 0.5  3 0 0.5  3.5 0 0.5  4 0 0.5  4.5 0 0.5  5 0 0.5  5.5 0 0.5  6 0 0.5  6.5 0 0.5  7 0 0.5  7.5 0 0.5  8 0 0.5  8.5 0 0.5  9 0 0.5  9.5 0 0.5  10 0 0.5  0 0.5 0.5  0.5 0.5 0.5  1 0.5 0.5  1.5 0.5 0.5  2 0.5 0.5  2.5 0.5 0.5  3 0.5 0.5  3.5 0.5 0.5  4 0.5 0.5  4.5 0.5 0.5  5 0.5 0.5  5.5 0.5 0.5  6 0.5 0.5  6.5 0.5 0.5  7 0.5 0.5  7.5 0.5 0.5  8 0.5 0.5  8.5 0.5 0.5  9 0.5 0.5  9.5 0.5 0.5  10 0.5 0.5  0 1 0.5  0.5 1 0.5  1 1 0.5  1.5 1 0.5  2 1 0.5  2.5 1 0.5  3 1 0.5  3.5 1 0.5  4 1 0.5  4.5 1 0.5  5 1 0.5  5.5 1 0.5  6 1 0.5  6.5 1 0.5  7 1 0.5  7.5 1 0.5  8 1 0.5  8.5 1 0.5  9 1 0.5  9.5 1 0.5  10 1 0.5  0 1.5 0.5  0.5 1.5 0.5  1 1.5 0.5  1.5 1.5 0.5  2 1.5 0.5  2.5 1.5 0.5  3 1.5 0.5  3.5 1.5 0.5  4 1.5 0.5  4.5 1.5 0.5  5 1.5 0.5  5.5 1.5 0.5  6 1.5 0.5  6.5 1.5 0.5  7 1.5 0.5  7.5 1.5 0.5  8 1.5 0.5  8.5 1.5 0.5  9 1.5 0.5  9.5 1.5 0.5  10 1.5 0.5  0 2 0.5  0.5 2 0.5  1 2 0.5  1.5 2 0.5  2 2 0.5  2.5 2 0.5  3 2 0.5  3.5 2 0.5  4 2 0.5  4.5 2 0.5  5 2 0.5  5.5 2 0.5  6 2 0.5  6.5 2 0.5  7 2 0.5  7.5 2 0.5  8 2 0.5  8.5 2 0.5  9 2 0.5  9.5 2 0.5  10 2 0.5  0 2.5 0.5  0.5 2.5 0.5  1 2.5 0.5  1.5 2.5 0.5  2 2.5 0.5  2.5 2.5 0.5  3 2.5 0.5  3.5 2.5 0.5  4 2.5 0.5  4.5 2.5 0.5  5 2.5 0.5  5.5 2.5 0.5  6 2.5 0.5  6.5 2.5 0.5  7 2.5 0.5  7.5 2.5 0.5  8 2.5 0.5  8.5 2.5 0.5  9 2.5 0.5  9.5 2.5 0.5  10 2.5 0.5  0 3 0.5  0.5 3 0.5  1 3 0.5  1.5 3 0.5  2 3 0.5  2.5 3 0.5  3 3 0.5  3.5 3 0.5  4 3 0.5  4.5 3 0.5  5 3 0.5  5.5 3 0.5  6 3 0.5  6.5 3 0.5  7 3 0.5  7.5 3 0.5  8 3 0.5  8.5 3 0.5  9 3 0.5  9.5 3 0.5  10 3 0.5  </DataArray>
</Points>
<Cells>
[...]
<PointData  Vectors="f_7-0"> 
<DataArray  type="Float64"  Name="f_7-0"  NumberOfComponents="3" format="ascii">0.0000000000000000e+00 0.0000000000000000e+00 0.0000000000000000e+00  1.5094277844625678e-01 1.1801845010621675e-01 2.7263008483002435e-02  2.9010528700669214e-01 2.1329783466551638e-01 2.4920292855625765e-02  4.3498050203872834e-01 2.7990970766567380e-01 2.7928542056275384e-02  6.2228786020065052e-01 3.0644104350298873e-01 3.2055420872683704e-02  8.4285846212879167e-01 3.0558473259335511e-01 3.3103761571206862e-02  1.0707349048047350e+00 3.0092499067214906e-01 3.2692634929928022e-02  1.2957484415210276e+00 3.0002375774941831e-01 3.2446720474605430e-02  1.5188678498731560e+00 3.0071208131209204e-01 3.2417375198410134e-02  1.7418517302791066e+00 3.0128648945134895e-01 3.2436805519198274e-02  1.9651171165201267e+00 3.0151531325982944e-01 3.2448823336101537e-02  2.1885523124961215e+00 3.0157772477381234e-01 3.2451102938775678e-02  2.4120356388917989e+00 3.0159939253306911e-01 3.2450456460292043e-02  2.6355242259396414e+00 3.0161628972855992e-01 3.2450013675637185e-02  2.8590138967762213e+00 3.0162995086390670e-01 3.2450061979666288e-02  3.0825068589945506e+00 3.0163865061081058e-01 3.2450239927862591e-02  3.3060031008075694e+00 3.0164331375239273e-01 3.2450359355404378e-02  3.5295013526012107e+00 3.0164566875819321e-01 3.2450412082754655e-02  3.7530005673796301e+00 3.0164688089559832e-01 3.2450432697995919e-02  3.9765002022336042e+00 3.0164748216102250e-01 3.2450441751075573e-02  4.2000000000000002e+00 3.0164766608421872e-01 3.2450444715534689e-02  0.0000000000000000e+00 0.0000000000000000e+00 0.0000000000000000e+00  8.0019811238346283e-02 4.4106208650674883e-02 2.8853342642307239e-02  2.3248726070420736e-01 1.5169333184331943e-01 2.8874224696555907e-02  4.0764465605196221e-01 2.0702950318770058e-01 3.1294628830985924e-02  6.1974003197919714e-01 2.1853279015888563e-01 3.2722460996012670e-02  8.4634305423516099e-01 2.1271867277552750e-01 3.2502970712966539e-02  1.0719670848053089e+00 2.0934628957962495e-01 3.2467271524273027e-02  1.2954336398508464e+00 2.0953402194815390e-01 3.2488326774361677e-02  1.5184470620135206e+00 2.1036072655576804e-01 3.2486618419892213e-02  1.7416604483149010e+00 2.1080483905480599e-01 3.2487676142109553e-02  1.9650632621645241e+00 2.1094269463960175e-01 3.2488177261680427e-02  2.1885376695598255e+00 2.1097691884712721e-01 3.2488225489853681e-02  2.4120256649840743e+00 2.1099515985683245e-01 3.2488284585652283e-02  2.6355153784682122e+00 2.1101184799082220e-01 3.2488402486880265e-02  2.8590078177891414e+00 2.1102413501650599e-01 3.2488515099617095e-02  3.0825034865282213e+00 2.1103125569408446e-01 3.2488587743253021e-02  3.3060013984196979e+00 2.1103489520182478e-01 3.2488627911670759e-02  3.5295004808990669e+00 2.1103674752731535e-01 3.2488649819125505e-02  3.7530001109070774e+00 2.1103773492448946e-01 3.2488661928336042e-02  3.9765000003856819e+00 2.1103823679384059e-01 3.2488668046463914e-02  4.2000000000000002e+00 2.1103839307079561e-01 3.2488669770800865e-02  0.0000000000000000e+00 0.0000000000000000e+00 0.0000000000000000e+00  3.8559679482116770e-02 8.2695126096526076e-03 2.2589064268954059e-02  1.8185431449241585e-01 8.3734003153818931e-02 3.3485868312558953e-02  3.8876958790622601e-01 1.2194142306829836e-01 3.3136133087305064e-02  6.1999257908079530e-01 1.2415738595741709e-01 3.2104489328444605e-02  8.4911438210649082e-01 1.1987305076173085e-01 3.1984892753264146e-02  1.0725800119758155e+00 1.1875722143720235e-01 3.2414436461080977e-02  1.2950559982111378e+00 1.1931038550232473e-01 3.2549954331662780e-02  1.5180926787849969e+00 1.1994305061453364e-01 3.2547434902707353e-02  1.7415102651458687e+00 1.2024253350088877e-01 3.2531115664465676e-02  1.9650198729179176e+00 1.2033765328442467e-01 3.2524920478267876e-02  2.1885229214236528e+00 1.2036971911392373e-01 3.2525103599797989e-02  2.4120149720395698e+00 1.2039038312925197e-01 3.2526257131005237e-02  2.6355067992035131e+00 1.2040652191115704e-01 3.2526808762423101e-02  2.8590022862575886e+00 1.2041708102631700e-01 3.2526902804624988e-02  3.0825004793410833e+00 1.2042294289513741e-01 3.2526878823021001e-02  3.3059998620486764e+00 1.2042598128666193e-01 3.2526868945782647e-02  3.5294996765258886e+00 1.2042758515610345e-01 3.2526876840641483e-02  3.7529996852120644e+00 1.2042845700248317e-01 3.2526886034600237e-02  3.9764998119056369e+00 1.2042889871170574e-01 3.2526890654934804e-02  4.2000000000000002e+00 1.2042903482307224e-01 3.2526892020058276e-02  0.0000000000000000e+00 0.0000000000000000e+00 0.0000000000000000e+00  3.1657021264510518e-02 6.2984961016468582e-03 1.7333962024295248e-02  1.4847302940821111e-01 8.4669009792846788e-03 3.7975125472555861e-02  3.8062995844392561e-01 2.5628574836310796e-02 3.2386060801355115e-02  6.2103340067559909e-01 2.6251021879665125e-02 3.1654139424597383e-02  8.4962346923727006e-01 2.7626751935961400e-02 3.2052556069912780e-02  1.0724207318901562e+00 2.8706707742789640e-02 3.2474071552453188e-02  1.2947450847739099e+00 2.9202611054294322e-02 3.2593297804029080e-02  1.5178755322206332e+00 2.9463785302590542e-02 3.2591101135700212e-02  1.7414075467560715e+00 2.9620010568698941e-02 3.2570154543826314e-02  1.9649778341468198e+00 2.9707831157345724e-02 3.2562801068217538e-02  2.1885024999502223e+00 2.9756374012654595e-02 3.2563229613280641e-02  2.4120021901077062e+00 2.9783988484933861e-02 3.2564634875286526e-02  2.6354985561791371e+00 2.9799788463293932e-02 3.2565193384312609e-02  2.8589974097953008e+00 2.9808733854816655e-02 3.2565212232760703e-02  3.0824977927528936e+00 2.9813770926012114e-02 3.2565138125844648e-02  3.3059984129932682e+00 2.9816603055971207e-02 3.2565106450280934e-02  3.5294988901858932e+00 2.9818184328397002e-02 3.2565105308817351e-02  3.7529992699769239e+00 2.9819043343034746e-02 3.2565109913405513e-02  3.9764996313831649e+00 2.9819465912345897e-02 3.2565111960589053e-02  4.2000000000000002e+00 2.9819593058103222e-02 3.2565112674112037e-02  0.0000000000000000e+00 0.0000000000000000e+00 0.0000000000000000e+00  4.0306950919419111e-02 -9.0669796189588394e-04 2.3791919392696363e-02  1.6206891988876648e-01 -5.2857049366127208e-02 3.5414402418421642e-02  3.8051751194549543e-01 -7.8182098338273179e-02 3.2054058144868176e-02  6.1943701650109617e-01 -7.1165264985206991e-02 3.1952592988177056e-02  8.4769261998613521e-01 -6.4428945454771361e-02 3.2388017472653810e-02  1.0715555549503892e+00 -6.1501121966973271e-02 3.2574369543049549e-02  1.2945461453592488e+00 -6.1004122424532660e-02 3.2626422229676884e-02  1.5178134096793592e+00 -6.1055542621216881e-02 3.2622829004114187e-02  1.7413496707435077e+00 -6.1024520512302852e-02 3.2608391995391908e-02  1.9649307050701275e+00 -6.0934707440572722e-02 3.2602981492488407e-02  2.1884729994241772e+00 -6.0863763507937145e-02 3.2602768155266720e-02  2.4119864174783792e+00 -6.0826227284841015e-02 3.2603394718169677e-02  2.6354904923866060e+00 -6.0809200690714826e-02 3.2603565322703941e-02  2.8589930711283853e+00 -6.0800914738840861e-02 3.2603483327798687e-02  3.0824952986532383e+00 -6.0796132192549979e-02 3.2603394588135985e-02  3.3059969590387310e+00 -6.0793186704589955e-02 3.2603353099068880e-02  3.5294980714944599e+00 -6.0791453481971722e-02 3.2603340068622019e-02  3.7529988419215869e+00 -6.0790513740033282e-02 3.2603336024097006e-02  3.9764994501838506e+00 -6.0790064209855929e-02 3.2603333910273452e-02  4.2000000000000002e+00 -6.0789932638522975e-02 3.2603333167277315e-02  0.0000000000000000e+00 0.0000000000000000e+00 0.0000000000000000e+00  6.8094666562387454e-02 -2.7189190961671564e-02 3.0158166363530841e-02  2.1398483798881107e-01 -1.1799939571121791e-01 2.8943581534780015e-02  3.9005599341554092e-01 -1.7188263835622081e-01 3.1350774087343963e-02  6.1476715014598471e-01 -1.6726742512955892e-01 3.2683748533769187e-02  8.4394251170653267e-01 -1.5688498656716862e-01 3.2808943146786618e-02  1.0701639427869829e+00 -1.5241192869446843e-01 3.2719630284033713e-02  1.2943732365704677e+00 -1.5149603242865448e-01 3.2665534457756565e-02  1.5178558110797622e+00 -1.5159914294943708e-01 3.2648860629754868e-02  1.7413290993945547e+00 -1.5165513074383355e-01 3.2645732502669077e-02  1.9648794607199891e+00 -1.5157788880256995e-01 3.2644354384087776e-02  2.1884349451822094e+00 -1.5149151162910829e-01 3.2643316074950982e-02  2.4119672680352005e+00 -1.5144255140989440e-01 3.2642498633752390e-02  2.6354820272121890e+00 -1.5142127282193327e-01 3.2641998432783127e-02  2.8589888949533000e+00 -1.5141186357046521e-01 3.2641765820597697e-02  3.0824928279214925e+00 -1.5140664577411489e-01 3.2641663824499900e-02  3.3059954301106869e+00 -1.5140334165135358e-01 3.2641612777048877e-02  3.5294971849951908e+00 -1.5140132962783415e-01 3.2641583562674666e-02  3.7529983800547018e+00 -1.5140022291519079e-01 3.2641566773056789e-02  3.9764992579457124e+00 -1.5139969516217949e-01 3.2641558278776107e-02  4.2000000000000002e+00 -1.5139954319040339e-01 3.2641555404399489e-02  0.0000000000000000e+00 0.0000000000000000e+00 0.0000000000000000e+00  1.3199229036873797e-01 -8.8576223353525593e-02 2.8307183638977110e-02  2.7391848371680755e-01 -1.8543018943517875e-01 2.3694523335560068e-02  4.1429640731581063e-01 -2.4474380928102715e-01 2.8477924594008580e-02  6.0934926093252229e-01 -2.6046630771748447e-01 3.3546137113722882e-02  8.3926529181684784e-01 -2.5032708193883468e-01 3.3055910580755528e-02  1.0683863429976428e+00 -2.4430142776620117e-01 3.2893572465565041e-02  1.2940835456060642e+00 -2.4236487149618108e-01 3.2735790232920663e-02  1.5179188510409516e+00 -2.4217481985231429e-01 3.2685766700638628e-02  1.7413327423568072e+00 -2.4225273712672485e-01 3.2680913899802759e-02  1.9648297594899833e+00 -2.4221314798754118e-01 3.2684020985900522e-02  2.1883918339115613e+00 -2.4212698611138689e-01 3.2683652120484588e-02  2.4119448060501676e+00 -2.4206638553510054e-01 3.2681844517058106e-02  2.6354723558865105e+00 -2.4203700458376923e-01 3.2680635756934549e-02  2.8589843787776839e+00 -2.4202416597004353e-01 3.2680132581969466e-02  3.0824902068870856e+00 -2.4201771961848131e-01 3.2679957739936184e-02  3.3059937813140534e+00 -2.4201384099891973e-01 3.2679882768626850e-02  3.5294962108104553e+00 -2.4201144811396685e-01 3.2679835306724941e-02  3.7529978681252234e+00 -2.4201009178524266e-01 3.2679804187879552e-02  3.9764990445787927e+00 -2.4200943132827421e-01 3.2679787418691757e-02  4.2000000000000002e+00 -2.4200923807079167e-01 3.2679781617811536e-02  0.0000000000000000e+00 0.0000000000000000e+00 0.0000000000000000e+00  1.5161683841820883e-01 1.1772375443200771e-01 1.6971350982043203e-02  2.8987821168839384e-01 2.1269498748247812e-01 1.4682210539908785e-02  4.3490531868586230e-01 2.7924361268579645e-01 1.6175160266525823e-02  6.2231152946071844e-01 3.0629312073309944e-01 1.8870115343013652e-02  8.4285349517960417e-01 3.0571165745971685e-01 1.9584163149204987e-02  1.0707286104579157e+00 3.0097501727744230e-01 1.9252328020355463e-02  1.2957471578659658e+00 3.0001613474620475e-01 1.9061381550921349e-02  1.5188681101166814e+00 3.0069759699568654e-01 1.9038498496598576e-02  1.7418522227242057e+00 3.0127564260636486e-01 1.9051199454613730e-02  1.9651173927090031e+00 3.0150691317487377e-01 1.9058653191377499e-02  2.1885523963921658e+00 3.0156984845559448e-01 1.9059598972592053e-02  2.4120356477863139e+00 3.0159139334732638e-01 1.9058841298145644e-02  2.6355242234809890e+00 3.0160817569189813e-01 1.9058416825929580e-02  2.8590138973652968e+00 3.0162182002423038e-01 1.9058407841203485e-02  3.0825068607130528e+00 3.0163053966386211e-01 1.9058512048377201e-02  3.3060031018068878e+00 3.0163521873379001e-01 1.9058583527803413e-02  3.5295013529125931e+00 3.0163758002657409e-01 1.9058613248136892e-02  3.7530005674790545e+00 3.0163879387613485e-01 1.9058623899723154e-02  3.9765002023849219e+00 3.0163939571689119e-01 1.9058628504486367e-02  4.2000000000000002e+00 3.0163958038011540e-01 1.9058630327642330e-02  0.0000000000000000e+00 0.0000000000000000e+00 0.0000000000000000e+00  8.0507335430691440e-02 4.5743872293107321e-02 1.7335741643759530e-02  2.3240548261961763e-01 1.5099099426292775e-01 1.7078699168669862e-02  4.0764331107260887e-01 2.0654840372762254e-01 1.8371657906532161e-02  6.1972568279714246e-01 2.1845721069435192e-01 1.9293223290901447e-02  8.4637747971741217e-01 2.1274909583534091e-01 1.9121966977086000e-02  1.0719741952882327e+00 2.0937069810564077e-01 1.9094150283223459e-02  1.2954293295736423e+00 2.0953475940318741e-01 1.9102857222196158e-02  1.5184454728680798e+00 2.1035100228555756e-01 1.9097373864964261e-02  1.7416607299077880e+00 2.1079476407892669e-01 1.9096927976038340e-02  1.9650637334138794e+00 2.1093395542254717e-01 1.9096899748512156e-02  2.1885378833185292e+00 2.1096878550767920e-01 1.9096765707428975e-02  2.4120257095999884e+00 2.1098710056855849e-01 1.9096704892125504e-02  2.6355153770047095e+00 2.1100374532191421e-01 1.9096723436068136e-02  2.8590078164464865e+00 2.1101601658710539e-01 1.9096769578936568e-02  3.0825034892412213e+00 2.1102314658958085e-01 1.9096805914462837e-02  3.3060014012888290e+00 2.1102679795241308e-01 1.9096827591990811e-02  3.5295004824674141e+00 2.1102865699621312e-01 1.9096839723270510e-02  3.7530001115812586e+00 2.1102964720424069e-01 1.9096846453438825e-02  3.9765000007445375e+00 2.1103015022876878e-01 1.9096849860653818e-02  4.2000000000000002e+00 2.1103030686230265e-01 1.9096850860050422e-02  0.0000000000000000e+00 0.0000000000000000e+00 0.0000000000000000e+00  3.6999452856580739e-02 8.8480496511790536e-03 1.3381585301487307e-02  1.8283872882636140e-01 8.4191759031208152e-02 1.9694693941764953e-02  3.8885610420679034e-01 1.2179905218830493e-01 1.9507051999721685e-02  6.2014892802628796e-01 1.2409335046533114e-01 1.8869902415754161e-02  8.4914829459834651e-01 1.1985883971744900e-01 1.8770254017369030e-02  1.0725591344321759e+00 1.1876784311859515e-01 1.9063123944766950e-02  1.2950473936343856e+00 1.1930949408307491e-01 1.9148724327787570e-02  1.5180929509520482e+00 1.1993433480981118e-01 1.9147489638125643e-02  1.7415118648686738e+00 1.2023302240609797e-01 1.9137662419933806e-02  1.9650206419030050e+00 1.2032899896257217e-01 1.9133779823008852e-02  2.1885230743575086e+00 1.2036154226019605e-01 1.9133936458638933e-02  2.4120149551675141e+00 1.2038229688518869e-01 1.9134672606099468e-02  2.6355067872165123e+00 1.2039841919836300e-01 1.9135020223170124e-02  2.8590022940379520e+00 1.2040897014675937e-01 1.9135078474962538e-02  3.0825004898635986e+00 1.2041483880356255e-01 1.9135062442101197e-02  3.3059998680457667e+00 1.2041788604770373e-01 1.9135055747665337e-02  3.5294996789015602e+00 1.2041949536099167e-01 1.9135060497318317e-02  3.7529996860958414e+00 1.2042036971122304e-01 1.9135066159266460e-02  3.9764998123332931e+00 1.2042081251369127e-01 1.9135069020286413e-02  4.2000000000000002e+00 1.2042094891875742e-01 1.9135069849159980e-02  0.0000000000000000e+00 0.0000000000000000e+00 0.0000000000000000e+00  3.0470500883430996e-02 6.0103474717588317e-03 1.0278426611472368e-02  1.4819902367617988e-01 8.3874032813689922e-03 2.2412594303444264e-02  3.8106293976646116e-01 2.5671694006791233e-02 1.8990020947176688e-02  6.2123206605579928e-01 2.6120641979680656e-02 1.8577169528317686e-02  8.4959863419569803e-01 2.7585858752816210e-02 1.8844662929709578e-02  1.0723904597741289e+00 2.8697714249533542e-02 1.9114280731986313e-02  1.2947379832458383e+00 2.9198157435363917e-02 1.9185544968520461e-02  1.5178779659486743e+00 2.9456030385697680e-02 1.9187637935743223e-02  1.7414098802509139e+00 2.9611087974741032e-02 1.9175818969615965e-02  1.9649785627013998e+00 2.9699158972519048e-02 1.9171664309279590e-02  2.1885025278309902e+00 2.9748061314013866e-02 1.9172058454008795e-02  2.4120021294668521e+00 2.9775831967387551e-02 1.9172958399294771e-02  2.6354985473341901e+00 2.9791672710534199e-02 1.9173321118438641e-02  2.8589974269754488e+00 2.9800626891505821e-02 1.9173342305335274e-02  3.0824978073198368e+00 2.9805670130962046e-02 1.9173301159282657e-02  3.3059984195653942e+00 2.9808508609321556e-02 1.9173283403948322e-02  3.5294988923610688e+00 2.9810094455370150e-02 1.9173283258583963e-02  3.7529992707407143e+00 2.9810955991055477e-02 1.9173286284141708e-02  3.9764996317161581e+00 2.9811379790938362e-02 1.9173287661251388e-02  4.2000000000000002e+00 2.9811507269674794e-02 1.9173288095536752e-02  0.0000000000000000e+00 0.0000000000000000e+00 0.0000000000000000e+00  3.9202155727774260e-02 -1.8361067643918884e-03 1.3998833187938530e-02  1.6169917800907074e-01 -5.2372338561302689e-02 2.0994791547155715e-02  3.8131463527438203e-01 -7.8233627539459200e-02 1.8732596526843660e-02  6.1948414533402707e-01 -7.1273350330672169e-02 1.8847995102836974e-02  8.4765852497935501e-01 -6.4487136906697731e-02 1.9082940027361567e-02  1.0715336967427924e+00 -6.1523587025490691e-02 1.9194561438341976e-02  1.2945428162196950e+00 -6.1013812146127382e-02 1.9224296750557590e-02  1.5178164271482903e+00 -6.1063269059432386e-02 1.9222835964733443e-02  1.7413518115638935e+00 -6.1032944368102880e-02 1.9214267321660726e-02  1.9649312831259973e+00 -6.0943330377551341e-02 1.9211270409817419e-02  2.1884729953355575e+00 -6.0872192745300674e-02 1.9211170697436587e-02  2.4119863722002219e+00 -6.0834460480945179e-02 1.9211544874349715e-02  2.6354904984200980e+00 -6.0817340310205192e-02 1.9211644114319502e-02  2.8589930932110481e+00 -6.0809024465826644e-02 1.9211594684981285e-02  3.0824953134497033e+00 -6.0804232404579522e-02 1.9211542565578152e-02  3.3059969652549213e+00 -6.0801281393454136e-02 1.9211518267873283e-02  3.5294980736204002e+00 -6.0799544011519158e-02 1.9211510596510325e-02  3.7529988427332568e+00 -6.0798601572012091e-02 1.9211508179363620e-02  3.9764994504592881e+00 -6.0798150570152275e-02 1.9211506933981572e-02  4.2000000000000002e+00 -6.0798018557117708e-02 1.9211506466067774e-02  0.0000000000000000e+00 0.0000000000000000e+00 0.0000000000000000e+00  6.7729383315219618e-02 -2.7546228888338239e-02 1.7798850049060188e-02  2.1436546206773302e-01 -1.1792368815753120e-01 1.7159282415637980e-02  3.9014102270289552e-01 -1.7163715391382117e-01 1.8509667419184344e-02  6.1485652630356336e-01 -1.6724950748118531e-01 1.9359312992663996e-02  8.4393189019770054e-01 -1.5693487269192996e-01 1.9375049816679146e-02  1.0701567299171872e+00 -1.5244407667033316e-01 1.9308590051451704e-02  1.2943744372312416e+00 -1.5151254486848928e-01 1.9269304700487995e-02  1.5178577506327722e+00 -1.5160841237739250e-01 1.9255587871704241e-02  1.7413303324856630e+00 -1.5166308987337043e-01 1.9252962243643489e-02  1.9648798722222702e+00 -1.5158619968677498e-01 1.9251815777288694e-02  2.1884350161819910e+00 -1.5149992720112343e-01 1.9250980163813668e-02  2.4119672881653753e+00 -1.5145084414736301e-01 1.9250373470263451e-02  2.6354820523084457e+00 -1.5142944981684081e-01 1.9250019653081513e-02  2.8589889160541109e+00 -1.5141998527066766e-01 1.9249862043025902e-02  3.0824928400273248e+00 -1.5141474819535614e-01 1.9249795235099960e-02  3.3059954357052836e+00 -1.5141143714125274e-01 1.9249762457600794e-02  3.5294971874336003e+00 -1.5140942116410849e-01 1.9249743863648184e-02  3.7529983811338599e+00 -1.5140831166733928e-01 1.9249733230996543e-02  3.9764992582648069e+00 -1.5140778220629247e-01 1.9249727908769543e-02  4.2000000000000002e+00 -1.5140762958371079e-01 1.9249726133222483e-02  0.0000000000000000e+00 0.0000000000000000e+00 0.0000000000000000e+00  1.3139962384426768e-01 -8.9396456688598830e-02 1.7583791639636727e-02  2.7457757632178648e-01 -1.8541269103784686e-01 1.4213770267162088e-02  4.1406318745191745e-01 -2.4415845594066679e-01 1.7025900129555339e-02  6.0936762378192066e-01 -2.6050419078938702e-01 2.0022132880391921e-02  8.3926037122532682e-01 -2.5034080534898812e-01 1.9520356039130361e-02  1.0683889460924938e+00 -2.4433802973975247e-01 1.9439429753150252e-02  1.2940861997133553e+00 -2.4238577871355654e-01 1.9328497803956093e-02  1.5179202447846911e+00 -2.4218571870791841e-01 1.9295755102428643e-02  1.7413335569268769e+00 -2.4226045597514953