<?xml version="1.0"?>
<VTKFile type="UnstructuredGrid"  version="0.1"  >
<UnstructuredGrid>
<Piece  NumberOfPoints="2976" NumberOfCells="13500">
<Points>
<DataArray  type="Float64"  NumberOfComponents="3"  format="ascii">0 0 0  0.3333333333333333 0 0  0.6666666666666666 0 0  1 0 0  1.333333333333333 0 0  1.666666666666667 0 0  2 0 0  2.333333333333333 0 0  2.666666666666667 0 0  3 0 0  3.333333333333333 0 0  3.666666666666667 0 0  4 0 0  4.333333333333333 0 0  4.666666666666667 0 0  5 0 0  5.333333333333333 0 0  5.666666666666667 0 0  6 0 0  6.333333333333333 0 0  6.666666666666667 0 0  7 0 0  7.333333333333333 0 0  7.666666666666667 0 0  8 0 0  8.333333333333334 0 0  8.666666666666666 0 0  9 0 0  9.333333333333334 0 0  9.666666666666666 0 0  10 0 0  0 0.2 0  0.3333333333333333 0.2 0  0.6666666666666666 0.2 0  1 0.2 0  1.333333333333333 0.2 0  1.666666666666667 0.2 0  2 0.2 0  2.333333333333333 0.2 0  2.666666666666667 0.2 0  3 0.2 0  3.333333333333333 0.2 0  3.666666666666667 0.2 0  4 0.2 0  4.333333333333333 0.2 0  4.666666666666667 0.2 0  5 0.2 0  5.333333333333333 0.2 0  5.666666666666667 0.2 0  6 0.2 0  6.333333333333333 0.2 0  6.666666666666667 0.2 0  7 0.2 0  7.333333333333333 0.2 0  7.666666666666667 0.2 0  8 0.2 0  8.333333333333334 0.2 0  8.666666666666666 0.2 0  9 0.2 0  9.333333333333334 0.2 0  9.666666666666666 0.2 0  10 0.2 0  0 0.4 0  0.3333333333333333 0.4 0  0.6666666666666666 0.4 0  1 0.4 0  1.333333333333333 0.4 0  1.666666666666667 0.4 0  2 0.4 0  2.333333333333333 0.4 0  2.666666666666667 0.4 0  3 0.4 0  3.333333333333333 0.4 0  3.666666666666667 0.4 0  4 0.4 0  4.333333333333333 0.4 0  4.666666666666667 0.4 0  5 0.4 0  5.333333333333333 0.4 0  5.666666666666667 0.4 0  6 0.4 0  6.333333333333333 0.4 0  6.666666666666667 0.4 0  7 0.4 0  7.333333333333333 0.4 0  7.666666666666667 0.4 0  8 0.4 0  8.333333333333334 0.4 0  8.666666666666666 0.4 0  9 0.4 0  9.333333333333334 0.4 0  9.666666666666666 0.4 0  10 0.4 0  0 0.6 0  0.3333333333333333 0.6 0  0.6666666666666666 0.6 0  1 0.6 0  1.333333333333333 0.6 0  1.666666666666667 0.6 0  2 0.6 0  2.333333333333333 0.6 0  2.666666666666667 0.6 0  3 0.6 0  3.333333333333333 0.6 0  3.666666666666667 0.6 0  4 0.6 0  4.333333333333333 0.6 0  4.666666666666667 0.6 0  5 0.6 0  5.333333333333333 0.6 0  5.666666666666667 0.6 0  6 0.6 0  6.333333333333333 0.6 0  6.666666666666667 0.6 0  7 0.6 0  7.333333333333333 0.6 0  7.666666666666667 0.6 0  8 0.6 0  8.333333333333334 0.6 0  8.666666666666666 0.6 0  9 0.6 0  9.333333333333334 0.6 0  9.666666666666666 0.6 0  10 0.6 0  0 0.8 0  0.3333333333333333 0.8 0  0.6666666666666666 0.8 0  1 0.8 0  1.333333333333333 0.8 0  1.666666666666667 0.8 0  2 0.8 0  2.333333333333333 0.8 0  2.666666666666667 0.8 0  3 0.8 0  3.333333333333333 0.8 0  3.666666666666667 0.8 0  4 0.8 0  4.333333333333333 0.8 0  4.666666666666667 0.8 0  5 0.8 0  5.333333333333333 0.8 0  5.666666666666667 0.8 0  6 0.8 0  6.333333333333333 0.8 0  6.666666666666667 0.8 0  7 0.8 0  7.333333333333333 0.8 0  7.666666666666667 0.8 0  8 0.8 0  8.333333333333334 0.8 0  8.666666666666666 0.8 0  9 0.8 0  9.333333333333334 0.8 0  9.666666666666666 0.8 0  10 0.8 0  0 1 0  0.3333333333333333 1 0  0.6666666666666666 1 0  1 1 0  1.333333333333333 1 0  1.666666666666667 1 0  2 1 0  2.333333333333333 1 0  2.666666666666667 1 0  3 1 0  3.333333333333333 1 0  3.666666666666667 1 0  4 1 0  4.333333333333333 1 0  4.666666666666667 1 0  5 1 0  5.333333333333333 1 0  5.666666666666667 1 0  6 1 0  6.333333333333333 1 0  6.666666666666667 1 0  7 1 0  7.333333333333333 1 0  7.666666666666667 1 0  8 1 0  8.333333333333334 1 0  8.666666666666666 1 0  9 1 0  9.333333333333334 1 0  9.666666666666666 1 0  10 1 0  0 1.2 0  0.3333333333333333 1.2 0  0.6666666666666666 1.2 0  1 1.2 0  1.333333333333333 1.2 0  1.666666666666667 1.2 0  2 1.2 0  2.333333333333333 1.2 0  2.666666666666667 1.2 0  3 1.2 0  3.333333333333333 1.2 0  3.666666666666667 1.2 0  4 1.2 0  4.333333333333333 1.2 0  4.666666666666667 1.2 0  5 1.2 0  5.333333333333333 1.2 0  5.666666666666667 1.2 0  6 1.2 0  6.333333333333333 1.2 0  6.666666666666667 1.2 0  7 1.2 0  7.333333333333333 1.2 0  7.666666666666667 1.2 0  8 1.2 0  8.333333333333334 1.2 0  8.666666666666666 1.2 0  9 1.2 0  9.333333333333334 1.2 0  9.666666666666666 1.2 0  10 1.2 0  0 1.4 0  0.3333333333333333 1.4 0  0.6666666666666666 1.4 0  1 1.4 0  1.333333333333333 1.4 0  1.666666666666667 1.4 0  2 1.4 0  2.333333333333333 1.4 0  2.666666666666667 1.4 0  3 1.4 0  3.333333333333333 1.4 0  3.666666666666667 1.4 0  4 1.4 0  4.333333333333333 1.4 0  4.666666666666667 1.4 0  5 1.4 0  5.333333333333333 1.4 0  5.666666666666667 1.4 0  6 1.4 0  6.333333333333333 1.4 0  6.666666666666667 1.4 0  7 1.4 0  7.333333333333333 1.4 0  7.666666666666667 1.4 0  8 1.4 0  8.333333333333334 1.4 0  8.666666666666666 1.4 0  9 1.4 0  9.333333333333334 1.4 0  9.666666666666666 1.4 0  10 1.4 0  0 1.6 0  0.3333333333333333 1.6 0  0.6666666666666666 1.6 0  1 1.6 0  1.333333333333333 1.6 0  1.666666666666667 1.6 0  2 1.6 0  2.333333333333333 1.6 0  2.666666666666667 1.6 0  3 1.6 0  3.333333333333333 1.6 0  3.666666666666667 1.6 0  4 1.6 0  4.333333333333333 1.6 0  4.666666666666667 1.6 0  5 1.6 0  5.333333333333333 1.6 0  5.666666666666667 1.6 0  6 1.6 0  6.333333333333333 1.6 0  6.666666666666667 1.6 0  7 1.6 0  7.333333333333333 1.6 0  7.666666666666667 1.6 0  8 1.6 0  8.333333333333334 1.6 0  8.666666666666666 1.6 0  9 1.6 0  9.333333333333334 1.6 0  9.666666666666666 1.6 0  10 1.6 0  0 1.8 0  0.3333333333333333 1.8 0  0.6666666666666666 1.8 0  1 1.8 0  1.333333333333333 1.8 0  1.666666666666667 1.8 0  2 1.8 0  2.333333333333333 1.8 0  2.666666666666667 1.8 0  3 1.8 0  3.333333333333333 1.8 0  3.666666666666667 1.8 0  4 1.8 0  4.333333333333333 1.8 0  4.666666666666667 1.8 0  5 1.8 0  5.333333333333333 1.8 0  5.666666666666667 1.8 0  6 1.8 0  6.333333333333333 1.8 0  6.666666666666667 1.8 0  7 1.8 0  7.333333333333333 1.8 0  7.666666666666667 1.8 0  8 1.8 0  8.333333333333334 1.8 0  8.666666666666666 1.8 0  9 1.8 0  9.333333333333334 1.8 0  9.666666666666666 1.8 0  10 1.8 0  0 2 0  0.3333333333333333 2 0  0.6666666666666666 2 0  1 2 0  1.333333333333333 2 0  1.666666666666667 2 0  2 2 0  2.333333333333333 2 0  2.666666666666667 2 0  3 2 0  3.333333333333333 2 0  3.666666666666667 2 0  4 2 0  4.333333333333333 2 0  4.666666666666667 2 0  5 2 0  5.333333333333333 2 0  5.666666666666667 2 0  6 2 0  6.333333333333333 2 0  6.666666666666667 2 0  7 2 0  7.333333333333333 2 0  7.666666666666667 2 0  8 2 0  8.333333333333334 2 0  8.666666666666666 2 0  9 2 0  9.333333333333334 2 0  9.666666666666666 2 0  10 2 0  0 2.2 0  0.3333333333333333 2.2 0  0.6666666666666666 2.2 0  1 2.2 0  1.333333333333333 2.2 0  1.666666666666667 2.2 0  2 2.2 0  2.333333333333333 2.2 0  2.666666666666667 2.2 0  3 2.2 0  3.333333333333333 2.2 0  3.666666666666667 2.2 0  4 2.2 0  4.333333333333333 2.2 0  4.666666666666667 2.2 0  5 2.2 0  5.333333333333333 2.2 0  5.666666666666667 2.2 0  6 2.2 0  6.333333333333333 2.2 0  6.666666666666667 2.2 0  7 2.2 0  7.333333333333333 2.2 0  7.666666666666667 2.2 0  8 2.2 0  8.333333333333334 2.2 0  8.666666666666666 2.2 0  9 2.2 0  9.333333333333334 2.2 0  9.666666666666666 2.2 0  10 2.2 0  0 2.4 0  0.3333333333333333 2.4 0  0.6666666666666666 2.4 0  1 2.4 0  1.333333333333333 2.4 0  1.666666666666667 2.4 0  2 2.4 0  2.333333333333333 2.4 0  2.666666666666667 2.4 0  3 2.4 0  3.333333333333333 2.4 0  3.666666666666667 2.4 0  4 2.4 0  4.333333333333333 2.4 0  4.666666666666667 2.4 0  5 2.4 0  5.333333333333333 2.4 0  5.666666666666667 2.4 0  6 2.4 0  6.333333333333333 2.4 0  6.666666666666667 2.4 0  7 2.4 0  7.333333333333333 2.4 0  7.666666666666667 2.4 0  8 2.4 0  8.333333333333334 2.4 0  8.666666666666666 2.4 0  9 2.4 0  9.333333333333334 2.4 0  9.666666666666666 2.4 0  10 2.4 0  0 2.6 0  0.3333333333333333 2.6 0  0.6666666666666666 2.6 0  1 2.6 0  1.333333333333333 2.6 0  1.666666666666667 2.6 0  2 2.6 0  2.333333333333333 2.6 0  2.666666666666667 2.6 0  3 2.6 0  3.333333333333333 2.6 0  3.666666666666667 2.6 0  4 2.6 0  4.333333333333333 2.6 0  4.666666666666667 2.6 0  5 2.6 0  5.333333333333333 2.6 0  5.666666666666667 2.6 0  6 2.6 0  6.333333333333333 2.6 0  6.666666666666667 2.6 0  7 2.6 0  7.333333333333333 2.6 0  7.666666666666667 2.6 0  8 2.6 0  8.333333333333334 2.6 0  8.666666666666666 2.6 0  9 2.6 0  9.333333333333334 2.6 0  9.666666666666666 2.6 0  10 2.6 0  0 2.8 0  0.3333333333333333 2.8 0  0.6666666666666666 2.8 0  1 2.8 0  1.333333333333333 2.8 0  1.666666666666667 2.8 0  2 2.8 0  2.333333333333333 2.8 0  2.666666666666667 2.8 0  3 2.8 0  3.333333333333333 2.8 0  3.666666666666667 2.8 0  4 2.8 0  4.333333333333333 2.8 0  4.666666666666667 2.8 0  5 2.8 0  5.333333333333333 2.8 0  5.666666666666667 2.8 0  6 2.8 0  6.333333333333333 2.8 0  6.666666666666667 2.8 0  7 2.8 0  7.333333333333333 2.8 0  7.666666666666667 2.8 0  8 2.8 0  8.333333333333334 2.8 0  8.666666666666666 2.8 0  9 2.8 0  9.333333333333334 2.8 0  9.666666666666666 2.8 0  10 2.8 0  0 3 0  0.3333333333333333 3 0  0.6666666666666666 3 0  1 3 0  1.333333333333333 3 0  1.666666666666667 3 0  2 3 0  2.333333333333333 3 0  2.666666666666667 3 0  3 3 0  3.333333333333333 3 0  3.666666666666667 3 0  4 3 0  4.333333333333333 3 0  4.666666666666667 3 0  5 3 0  5.333333333333333 3 0  5.666666666666667 3 0  6 3 0  6.333333333333333 3 0  6.666666666666667 3 0  7 3 0  7.333333333333333 3 0  7.666666666666667 3 0  8 3 0  8.333333333333334 3 0  8.666666666666666 3 0  9 3 0  9.333333333333334 3 0  9.666666666666666 3 0  10 3 0  0 0 0.1  0.3333333333333333 0 0.1  0.6666666666666666 0 0.1  1 0 0.1  1.333333333333333 0 0.1  1.666666666666667 0 0.1  2 0 0.1  2.333333333333333 0 0.1  2.666666666666667 0 0.1  3 0 0.1  3.333333333333333 0 0.1  3.666666666666667 0 0.1  4 0 0.1  4.333333333333333 0 0.1  4.666666666666667 0 0.1  5 0 0.1  5.333333333333333 0 0.1  5.666666666666667 0 0.1  6 0 0.1  6.333333333333333 0 0.1  6.666
[...]
<PointData  Vectors="f_7-0"> 
<DataArray  type="Float64"  Name="f_7-0"  NumberOfComponents="3" format="ascii">0.0000000000000000e+00 0.0000000000000000e+00 0.0000000000000000e+00  6.4656728704686570e-02 7.3210533855280244e-02 -3.0033903373381911e-03  1.2451836968824286e-01 1.3450365514236903e-01 1.9672077486450096e-03  1.8065220165424220e-01 1.8790428512931609e-01 2.1231363215017834e-03  2.3549854156645325e-01 2.3814877442336901e-01 1.8624461299674394e-03  2.8962003140572473e-01 2.8585340881411764e-01 1.5502031820604242e-03  3.4320124973459676e-01 3.3107790660371744e-01 6.9281034109422662e-04  4.0029842706583046e-01 3.6985076847635351e-01 -9.4423331561144426e-04  4.6768339666491016e-01 3.9552129200787806e-01 -4.2068508690210130e-03  5.4698815053442362e-01 4.0551209321587495e-01 -8.4772834709377250e-03  6.3422461398160190e-01 4.0435328009690097e-01 -1.1761234405048027e-02  7.2469736461481093e-01 3.9895493280580924e-01 -1.3109407732798053e-02  8.1560380980023317e-01 3.9362629479409844e-01 -1.3099912607825556e-02  9.0589774973040194e-01 3.8978274717738354e-01 -1.2586551950903354e-02  9.9534974772479701e-01 3.8755107122254462e-01 -1.2015314503118438e-02  1.0840025469027226e+00 3.8668150553634517e-01 -1.1535885542932020e-02  1.1720176806512357e+00 3.8679357635166395e-01 -1.1194835185509197e-02  1.2596245182684715e+00 3.8745940335746809e-01 -1.1000552173159381e-02  1.3470558897742575e+00 3.8829836861180184e-01 -1.0931657211077646e-02  1.4344848722276970e+00 3.8905615688692502e-01 -1.0946155319073607e-02  1.5220013921346733e+00 3.8961950412596802e-01 -1.0999381192174394e-02  1.6096285872562068e+00 3.8997710886903253e-01 -1.1058482406837664e-02  1.6973524051297735e+00 3.9016863295874715e-01 -1.1106243048547364e-02  1.7851449147765437e+00 3.9024815048792810e-01 -1.1137334090185649e-02  1.8729774422947294e+00 3.9026493090326070e-01 -1.1152980740289748e-02  1.9608266974562230e+00 3.9025548214899525e-01 -1.1157137621222111e-02  2.0486769776631402e+00 3.9024184633321357e-01 -1.1154342033176459e-02  2.1365200244962299e+00 3.9023354508722519e-01 -1.1148578581974919e-02  2.2243534910813749e+00 3.9023154301132268e-01 -1.1142749184313312e-02  2.3121789172346365e+00 3.9023275065130669e-01 -1.1138736416733720e-02  2.3999999999999999e+00 3.9023378439036077e-01 -1.1137546327285662e-02  0.0000000000000000e+00 0.0000000000000000e+00 0.0000000000000000e+00  3.4324256310423892e-02 3.0395928200445416e-02 -5.3238872671003835e-04  9.9808257528606933e-02 1.0102357979590290e-01 1.1113783318933350e-03  1.5794733582270301e-01 1.5740570869393739e-01 1.2680997121902562e-03  2.1383529286801697e-01 2.0847650320833008e-01 1.5467023131654257e-03  2.6872762171242021e-01 2.5699942231683642e-01 1.0939401437572442e-03  3.2452077955586395e-01 3.0156561743139904e-01 1.8684054624407072e-04  3.8752596854250049e-01 3.3580689584838469e-01 -2.2562590134750250e-03  4.6231575001934977e-01 3.5397397984495477e-01 -6.4278851840410571e-03  5.4677939203687165e-01 3.5752800887394875e-01 -1.0530563709860838e-02  6.3610593066962218e-01 3.5320732750484196e-01 -1.2698915855951731e-02  7.2674988565968190e-01 3.4716363542707429e-01 -1.3041395767855976e-02  8.1715177966376162e-01 3.4223923730583639e-01 -1.2659974717563246e-02  9.0684861763272862e-01 3.3905893617427130e-01 -1.2164298301813302e-02  9.9577583136027814e-01 3.3747950108346036e-01 -1.1704082700775094e-02  1.0840301894009177e+00 3.3714523858237655e-01 -1.1333482728852887e-02  1.1718013079570251e+00 3.3761692881489674e-01 -1.1089547626177292e-02  1.2593136994588034e+00 3.3845549312487527e-01 -1.0976561675720536e-02  1.3467592674140374e+00 3.3932002622740631e-01 -1.0963772195115705e-02  1.4342564541314213e+00 3.4002026760705772e-01 -1.1005479070220965e-02  1.5218519095703900e+00 3.4049880242002728e-01 -1.1063293077263423e-02  1.6095455478420158e+00 3.4077782768585085e-01 -1.1115065183751655e-02  1.6973156841941917e+00 3.4091101183626155e-01 -1.1152188838724486e-02  1.7851351984290367e+00 3.4095475607677511e-01 -1.1173823964366067e-02  1.8729798353994362e+00 3.4095493562765294e-01 -1.1182740226923636e-02  1.9608317361233669e+00 3.4094239115968256e-01 -1.1183017256988888e-02  2.0486801635344372e+00 3.4093327775627263e-01 -1.1178703561102232e-02  2.1365204955808372e+00 3.4093227835755774e-01 -1.1173003371052296e-02  2.2243523676420081e+00 3.4093709891602664e-01 -1.1167985651626777e-02  2.3121778210348496e+00 3.4094281618259548e-01 -1.1164737477356190e-02  2.3999999999999999e+00 3.4094521021247476e-01 -1.1163593646537786e-02  0.0000000000000000e+00 0.0000000000000000e+00 0.0000000000000000e+00  1.5433657168134815e-02 6.8259960058637218e-03 8.8189493113448036e-03  7.3849937690177017e-02 6.5869186940218968e-02 -2.9228216048164547e-03  1.3470891498109150e-01 1.2552666859084469e-01 1.5135743132883488e-03  1.9197963906344886e-01 1.7823641559234635e-01 1.0143911065375009e-03  2.4798352250417594e-01 2.2716697041411391e-01 8.3974809588197702e-04  3.0751047793763397e-01 2.6935179763232681e-01 -6.2320764406347852e-04  3.7774074206669966e-01 2.9721250173425429e-01 -4.4181064837491464e-03  4.5935311454067790e-01 3.0823989892808989e-01 -9.3277021929731793e-03  5.4771920205494351e-01 3.0732499116998124e-01 -1.2649084889799907e-02  6.3825826083312232e-01 3.0160756299842811e-01 -1.3363098823818573e-02  7.2871550547757846e-01 2.9570406742565492e-01 -1.2809643006655963e-02  8.1851951908030252e-01 2.9133923958001273e-01 -1.2213273414871736e-02  9.0760897556183029e-01 2.8877604714213612e-01 -1.1769886392387057e-02  9.9603580392133262e-01 2.8775121661343667e-01 -1.1410568129841550e-02  1.0839387789308743e+00 2.8783269822345164e-01 -1.1143762388333294e-02  1.1715218849863653e+00 2.8854311125567822e-01 -1.0999161477158254e-02  1.2589875372443051e+00 2.8945942881564113e-01 -1.0968265877629727e-02  1.3464762800906906e+00 2.9029615526623148e-01 -1.1007688219060972e-02  1.4340526354278502e+00 2.9092272702175648e-01 -1.1070857753662355e-02  1.5217265761828545e+00 2.9132265638052091e-01 -1.1128967028754166e-02  1.6094811176359478e+00 2.9153803774075226e-01 -1.1171333683450553e-02  1.6972908519149204e+00 2.9162852207085205e-01 -1.1197129678248232e-02  1.7851314256891890e+00 2.9164920402543987e-01 -1.1209187980446312e-02  1.8729838269306802e+00 2.9164134197431796e-01 -1.1211487939009734e-02  1.9608357890215578e+00 2.9163020287823832e-01 -1.1208139039980646e-02  2.0486812823502021e+00 2.9162693366841319e-01 -1.1202620062930704e-02  2.1365188558908321e+00 2.9163261745922375e-01 -1.1197275132512270e-02  2.2243496741547952e+00 2.9164290690850930e-01 -1.1193265753293347e-02  2.3121759504481671e+00 2.9165200037932876e-01 -1.1190882748450377e-02  2.3999999999999999e+00 2.9165552733407951e-01 -1.1190065819315793e-02  0.0000000000000000e+00 0.0000000000000000e+00 0.0000000000000000e+00  1.3247885028127657e-02 3.1375393769713720e-03 9.9495656991919271e-03  4.7724276722679912e-02 2.9229134760872875e-02 4.4736418915335566e-03  1.1095017191888160e-01 9.2755966312975127e-02 -1.0499609219263499e-03  1.6981328978661336e-01 1.4722595231646665e-01 8.4195519165134629e-04  2.2775963898968857e-01 1.9597706840230739e-01 4.3977874655108846e-04  2.9315991694331572e-01 2.3350026107459551e-01 -2.2758339763787462e-03  3.7106479052787611e-01 2.5380382872792218e-01 -7.4126684650906976e-03  4.5828914368954937e-01 2.5883165728006724e-01 -1.2292188084503141e-02  5.4926223930445806e-01 2.5551667370165609e-01 -1.4196432490421540e-02  6.4035267382814753e-01 2.4982170348048269e-01 -1.3607865834190146e-02  7.3048262170417322e-01 2.4460951298249611e-01 -1.2540914872877966e-02  8.1969596087871854e-01 2.4091778818562593e-01 -1.1838731379733840e-02  9.0819896184910254e-01 2.3892362451163024e-01 -1.1422801530571090e-02  9.9615963844994848e-01 2.3834798644785060e-01 -1.1145170090396631e-02  1.0837618517501277e+00 2.3871838350414121e-01 -1.0979436930802155e-02  1.1712098660325918e+00 2.3954744862884206e-01 -1.0932936730692688e-02  1.2586668961327692e+00 2.4045485431172187e-01 -1.0977203724937457e-02  1.3462164915865917e+00 2.4122003252602128e-01 -1.1059083749590045e-02  1.4338746051641265e+00 2.4176321596645151e-01 -1.1136432992383153e-02  1.5216223463375387e+00 2.4209355699607138e-01 -1.1191734863778073e-02  1.6094310342701403e+00 2.4226091147757298e-01 -1.1224333031517115e-02  1.6972740047184367e+00 2.4232405256076728e-01 -1.1239423625738060e-02  1.7851306914928444e+00 2.4233368834534641e-01 -1.1242683948119656e-02  1.8729876513260038e+00 2.4232552369221655e-01 -1.1239096157714705e-02  1.9608380891599313e+00 2.4231954875409081e-01 -1.1232738830947350e-02  2.0486802693189099e+00 2.4232291007352380e-01 -1.1226458982938775e-02  2.1365154036672109e+00 2.4233435287314611e-01 -1.1221709426828369e-02  2.2243457643695095e+00 2.4234863197791173e-01 -1.1218768493734661e-02  2.3121734628010158e+00 2.4235995822532982e-01 -1.1217276253386537e-02  2.3999999999999999e+00 2.4236421465446084e-01 -1.1216826256393775e-02  0.0000000000000000e+00 0.0000000000000000e+00 0.0000000000000000e+00  1.5153470713042700e-02 4.1227827462869933e-03 8.2800588751265267e-03  3.3829546094068783e-02 1.1028137111029538e-02 1.0280875488367308e-02  8.5868804707253360e-02 5.7237392307946007e-02 7.4797081067411013e-04  1.4732103357613627e-01 1.1536669233575818e-01 5.8654654495022141e-04  2.0911916991773072e-01 1.6242797724753510e-01 -6.7918338318848071e-04  2.8219546351277164e-01 1.9301074154191472e-01 -4.9798492477775638e-03  3.6716765133035917e-01 2.0580190504466397e-01 -1.0960983852334190e-02  4.5845937516214769e-01 2.0665980477244308e-01 -1.4760337646799671e-02  5.5087334974898705e-01 2.0277276548092163e-01 -1.4979600009772040e-02  6.4213468110452199e-01 1.9800536513224823e-01 -1.3595154389806421e-02  7.3195598234761905e-01 1.9383578815658306e-01 -1.2345638820303814e-02  8.2066114033114079e-01 1.9092812506456283e-01 -1.1562743540789431e-02  9.0863589798040512e-01 1.8947213867895191e-01 -1.1130345920548483e-02  9.9618079595847464e-01 1.8923902973018658e-01 -1.0912721753914075e-02  1.0835375767102826e+00 1.8976811429911103e-01 -1.0845455473243160e-02  1.1708978344595280e+00 1.9060258767012006e-01 -1.0892818344287751e-02  1.2583722361598597e+00 1.9142816981052493e-01 -1.1000959879100419e-02  1.3459883205773402e+00 1.9208968700317922e-01 -1.1113708603576591e-02  1.4337227262476990e+00 1.9254542766661789e-01 -1.1198823362133499e-02  1.5215357037993624e+00 1.9281648188031100e-01 -1.1249829395157382e-02  1.6093907203046611e+00 1.9295085467669973e-01 -1.1273435322597841e-02  1.6972610155455117e+00 1.9300091111563208e-01 -1.1279024030327314e-02  1.7851299720414218e+00 1.9301033051719066e-01 -1.1274545037102094e-02  1.8729895243529013e+00 1.9300852232793095e-01 -1.1265924840469822e-02  1.9608379134562788e+00 1.9301065392424380e-01 -1.1257188825251169e-02  2.0486771230385417e+00 1.9302095803052075e-01 -1.1250513941671385e-02  2.1365104894761067e+00 1.9303706986026789e-01 -1.1246468256992556e-02  2.2243410205908516e+00 1.9305389660352729e-01 -1.1244550234485982e-02  2.3121706002282330e+00 1.9306635973246639e-01 -1.1243885015456766e-02  2.3999999999999999e+00 1.9307092464343226e-01 -1.1243764631018007e-02  0.0000000000000000e+00 0.0000000000000000e+00 0.0000000000000000e+00  1.4694124490670445e-02 3.2117606274286075e-03 8.6315324420824548e-03  3.1402048877389011e-02 6.1532249339589116e-03 1.0161444564848094e-02  6.5056905241009183e-02 2.8115045918097874e-02 6.8976788821873587e-03  1.2494062800724769e-01 8.2324831174002355e-02 -3.4801956902184226e-04  1.9340223049603841e-01 1.2498344980879506e-01 -2.6190347361351924e-03  2.7472416123538140e-01 1.4740034916150829e-01 -8.7789551040111831e-03  3.6540634215808132e-01 1.5391506027186644e-01 -1.4454661412333942e-02  4.5916876208189172e-01 1.5278089393098324e-01 -1.6284361383623897e-02  5.5219193252823595e-01 1.4959707855938004e-01 -1.5146154976715313e-02  6.4346736488481626e-01 1.4621187194548715e-01 -1.3516830707005946e-02  7.3306213327470038e-01 1.4329909921965325e-01 -1.2245499307968302e-02  8.2138337815110352e-01 1.4128938953975156e-01 -1.1385271991071148e-02  9.0892788312546668e-01 1.4036807926262759e-01 -1.0905216378647135e-02  9.9613178537418057e-01 1.4038084958599192e-01 -1.0724992349370301e-02  1.0833038894423479e+00 1.4094399299069538e-01 -1.0747165954426765e-02  1.1706151769508324e+00 1.4168474816516785e-01 -1.0877188491366914e-02  1.2581199450478397e+00 1.4237237538586664e-01 -1.1034353701578967e-02  1.3457976852730005e+00 1.4290899429406839e-01 -1.1166804338771711e-02  1.4335966780981675e+00 1.4327688155617743e-01 -1.1255217536399234e-02  1.5214633687728003e+00 1.4349842936883264e-01 -1.1301990900035966e-02  1.6093560439906254e+00 1.4361301771707388e-01 -1.1318249620407219e-02  1.6972481609321501e+00 1.4366235306931804e-01 -1.1316023393969850e-02  1.7851265719510314e+00 1.4368078536109083e-01 -1.1305135708984143e-02  1.8729879090953419e+00 1.4369078576952005e-01 -1.1292439940972624e-02  1.9608346921003299e+00 1.4370321971738503e-01 -1.1281910637161352e-02  2.0486718998332720e+00 1.4372047630079002e-01 -1.1275072774238670e-02  2.1365044487222016e+00 1.4374019812266278e-01 -1.1271692341457843e-02  2.2243357984618966e+00 1.4375830789005153e-01 -1.1270639975420870e-02  2.3121675918448084e+00 1.4377094945648286e-01 -1.1270652208977291e-02  2.3999999999999999e+00 1.4377546397759455e-01 -1.1270785760192678e-02  0.0000000000000000e+00 0.0000000000000000e+00 0.0000000000000000e+00  1.4085794972507077e-02 1.9472575631714728e-03 8.4838958260857866e-03  3.2379213534766714e-02 5.1692948861023274e-03 9.2630309344006300e-03  5.3555548822981511e-02 1.2879471987832358e-02 1.0572674928568046e-02  1.0475181096702291e-01 4.7673371697037850e-02 2.4472943414961673e-03  1.8157334544322423e-01 8.2615624500555235e-02 -6.0297755679084054e-03  2.7033269066107840e-01 9.6842396600737346e-02 -1.3154292829596060e-02  3.6494003220739746e-01 9.9286688001895815e-02 -1.7108293820821279e-02  4.5984147940051984e-01 9.8091292182280743e-02 -1.6804536646538804e-02  5.5304296434518974e-01 9.6262455336902697e-02 -1.5036156849261871e-02  6.4429133116975001e-01 9.4443234841661255e-02 -1.3469771423796115e-02  7.3374906171520848e-01 9.2911471563510623e-02 -1.2213342272866795e-02  8.2182434381931202e-01 9.1899684653970942e-02 -1.1292603306507866e-02  9.0907351302127681e-01 9.1530119404884855e-02 -1.0761364633523103e-02  9.9604154678916634e-01 9.1713099692206576e-02 -1.0601204185839729e-02  1.0830951869746617e+00 9.2206114901641559e-02 -1.0691650591573003e-02  1.1703858786696799e+00 9.2776491801284444e-02 -1.0882693719743956e-02  1.2579218209575158e+00 9.3287610766086063e-02 -1.1071691335105315e-02  1.3456483239028814e+00 9.3686747732107126e-02 -1.1214650125620956e-02  1.4334958737883410e+00 9.3967983148991518e-02 -1.1303876098287082e-02  1.5214026356370645e+00 9.4147932980147536e-02 -1.1347392382972395e-02  1.6093235899293421e+00 9.4253106829196770e-02 -1.1358382546861783e-02  1.6972323219659273e+00 9.4311488854603720e-02 -1.1350402931981318e-02  1.7851182464658413e+00 9.4346180320513090e-02 -1.1334738261310691e-02  1.8729815637073743e+00 9.4372148092869410e-02 -1.1319053706490858e-02  1.9608279998422311e+00 9.4396447492461774e-02 -1.1307276768362833e-02  2.0486646757983182e+00 9.4420560781121710e-02 -1.1300376500775087e-02  2.1364975655014895e+00 9.4443044061641029e-02 -1.1297495258744562e-02  2.2243303946121569e+00 9.4461469206129467e-02 -1.1297054179642621e-02  2.3121646222752528e+00 9.4473564498688559e-02 -1.1297526133099195e-02  2.3999999999999999e+00 9.4477766138040958e-02 -1.1297822871038343e-02  0.0000000000000000e+00 0.0000000000000000e+00 0.0000000000000000e+00  1.4009877076417659e-02 8.4094193404173035e-04 8.2308143968387194e-03  3.1461448775592246e-02 3.1666784447340027e-03 9.1644979939335472e-03  4.9681014913934278e-02 8.2907091432267953e-03 1.0899034903076301e-02  9.2873307830958790e-02 1.6997189266928264e-02 6.2869367850588104e-03  1.7387909359816045e-01 3.4974054676410758e-02 -9.1788506750540427e-03  2.6825754524495632e-01 4.2274538446645790e-02 -1.6994571212080693e-02  3.6490938155134556e-01 4.3225490118935263e-02 -1.8441270357139931e-02  4.6014222923188691e-01 4.3115635276531623e-02 -1.6696687944786959e-02  5.5336848398888727e-01 4.2886188058823695e-02 -1.4918851461494994e-02  6.4458890809055958e-01 4.2692554239900316e-02 -1.3458917069611895e-02  7.3398573649453591e-01 4.2599282395941025e-02 -1.2217981334776607e-02  8.2195047260498921e-01 4.2649776827718644e-02 -1.1267802461974627e-02  9.0906680240962123e-01 4.2849648824843434e-02 -1.0710442174311791e-02  9.9593140131418811e-01 4.3156904796231521e-02 -1.0560659360877148e-02  1.0829372900491476e+00 4.3513909197214221e-02 -1.0684878401298075e-02  1.1702265136031746e+00 4.3867273501760617e-02 -1.0904998836675714e-02  1.2577852089426300e+00 4.4179974197401585e-02 -1.1107905746852213e-02  1.3455423112416125e+00 4.4435167096583419e-02 -1.1254763580622223e-02  1.4334197583937436e+00 4.4631069039645144e-02 -1.1343870103114303e-02  1.5213515680195460e+00 4.4774664866113034e-02 -1.1385503595095905e-02  1.6092908642402768e+00 4.4877306533721240e-02 -1.1393476977699111e-02  1.6972111747063754e+00 4.4951324575795301e-02 -1.1382099033856716e-02  1.7851033229348594e+00 4.5007188077592679e-02 -1.1363574699732579e-02  1.8729695816103378e+00 4.5051918697421992e-02 -1.1346108845469535e-02  1.9608175370648797e+00 4.5089128953861503e-02 -1.1333587279526039e-02  2.0486555088958425e+00 4.5120074003542968e-02 -1.1326608228184112e-02  2.1364900395864024e+00 4.5144821406012892e-02 -1.1323953646157989e-02  2.2243250138615562e+00 4.5162989983410902e-02 -1.1323794952951620e-02  2.3121618145008553e+00 4.5174116336214008e-02 -1.1324467879174070e-02  2.3999999999999999e+00 4.5177856587397848e-02 -1.1324830835281531e-02  0.0000000000000000e+00 0.0000000000000000e+00 0.0000000000000000e+00  1.4179720471880899e-02 -2.8252961471197919e-04 7.9205913801118112e-03  2.9258907300908219e-02 2.4404665939289773e-03 9.3394334598312281e-03  4.9863917620123398e-02 4.2871962049845962e-03 1.0704784805373960e-02  9.3085215580614653e-02 -8.3691052365401607e-03 7.5987240932925693e-03  1.7112190791992674e-01 -1.5704435449954934e-02 -9.0352122211947768e-03  2.6758307058358255e-01 -1.4464921296765101e-02 -1.9244310853584527e-02  3.6470468777404652e-01 -1.3304660174950829e-02 -1.8484089346617334e-02  4.5995093268105625e-01 -1.1918662963740150e-02 -1.6464355967721667e-02  5.5315579353102584e-01 -1.0483351888648336e-02 -1.4870906098917794e-02  6.4436108222750821e-01 -9.0468190747096597e-03 -1.3461879073862523e-02  7.3375936726343127e-01 -7.6946442896861193e-03 -1.2241240198676969e-02  8.2174512597379890e-01 -6.5696370336790540e-03 -1.1301856734867886e-02  9.0890426446343375e-01 -5.8008498461162286e-03 -1.0759635567259571e-02  9.9581121060606370e-01 -5.3802302038856364e-03 -1.0613764112996651e-02  1.0828424758734341e+00 -5.1733834609617802e-03 -1.0729481139177627e-02  1.1701449186137436e+00 -5.0485997766655149e-03 -1.0941153101972035e-02  1.2577135313539662e+00 -4.9407249547414253e-03 -1.1140268721512346e-02  1.3454805844007345e+00 -4.8315812642460753e-03 -1.1286082234340888e-02  1.4333679964481025e+00 -4.7204155004271836e-03 -1.1374858945669513e-02  1.5213090842435273e+00 -4.6109652213259062e-03 -1.1416048516188139e-02  1.6092564255565880e+00 -4.5078391307058520e-03 -1.1423298498452280e-02  1.6971833405482999e+00 -4.4151861766682319e-03 -1.1411064136794775e-02  1.7850807982911550e+00 -4.3358406681434898e-03 -1.1391794084018908e-02  1.8729514143788302e+00 -4.2709643895026414e-03 -1.1373829606375920e-02  1.9608031062603570e+00 -4.2202235224561447e-03 -1.1361025558422286e-02  2.0486444038003868e+00 -4.1822775620337016e-03 -1.1353875285898990e-02  2.1364819582642092e+00 -4.1553134782434092e-03 -1.1351101567236368e-02  2.2243197468440283e+00 -4.1375129042903703e-03 -1.1350856086303561e-02  2.3121592214231845e+00 -4.1274400664915020e-03 -1.1351456846254203e-02  2.3999999999999999e+00 -4.1241870310081584e-03 -1.1351787470858353e-02  0.0000000000000000e+00 0.0000000000000000e+00 0.0000000000000000e+00  1.3945305546946861e-02 -8.547