<?xml version="1.0"?>
<VTKFile type="UnstructuredGrid"  version="0.1"  >
<UnstructuredGrid>
<Piece  NumberOfPoints="882" NumberOfCells="3600">
<Points>
<DataArray  type="Float64"  NumberOfComponents="3"  format="ascii">0 0 0  0.5 0 0  1 0 0  1.5 0 0  2 0 0  2.5 0 0  3 0 0  3.5 0 0  4 0 0  4.5 0 0  5 0 0  5.5 0 0  6 0 0  6.5 0 0  7 0 0  7.5 0 0  8 0 0  8.5 0 0  9 0 0  9.5 0 0  10 0 0  0 0.5 0  0.5 0.5 0  1 0.5 0  1.5 0.5 0  2 0.5 0  2.5 0.5 0  3 0.5 0  3.5 0.5 0  4 0.5 0  4.5 0.5 0  5 0.5 0  5.5 0.5 0  6 0.5 0  6.5 0.5 0  7 0.5 0  7.5 0.5 0  8 0.5 0  8.5 0.5 0  9 0.5 0  9.5 0.5 0  10 0.5 0  0 1 0  0.5 1 0  1 1 0  1.5 1 0  2 1 0  2.5 1 0  3 1 0  3.5 1 0  4 1 0  4.5 1 0  5 1 0  5.5 1 0  6 1 0  6.5 1 0  7 1 0  7.5 1 0  8 1 0  8.5 1 0  9 1 0  9.5 1 0  10 1 0  0 1.5 0  0.5 1.5 0  1 1.5 0  1.5 1.5 0  2 1.5 0  2.5 1.5 0  3 1.5 0  3.5 1.5 0  4 1.5 0  4.5 1.5 0  5 1.5 0  5.5 1.5 0  6 1.5 0  6.5 1.5 0  7 1.5 0  7.5 1.5 0  8 1.5 0  8.5 1.5 0  9 1.5 0  9.5 1.5 0  10 1.5 0  0 2 0  0.5 2 0  1 2 0  1.5 2 0  2 2 0  2.5 2 0  3 2 0  3.5 2 0  4 2 0  4.5 2 0  5 2 0  5.5 2 0  6 2 0  6.5 2 0  7 2 0  7.5 2 0  8 2 0  8.5 2 0  9 2 0  9.5 2 0  10 2 0  0 2.5 0  0.5 2.5 0  1 2.5 0  1.5 2.5 0  2 2.5 0  2.5 2.5 0  3 2.5 0  3.5 2.5 0  4 2.5 0  4.5 2.5 0  5 2.5 0  5.5 2.5 0  6 2.5 0  6.5 2.5 0  7 2.5 0  7.5 2.5 0  8 2.5 0  8.5 2.5 0  9 2.5 0  9.5 2.5 0  10 2.5 0  0 3 0  0.5 3 0  1 3 0  1.5 3 0  2 3 0  2.5 3 0  3 3 0  3.5 3 0  4 3 0  4.5 3 0  5 3 0  5.5 3 0  6 3 0  6.5 3 0  7 3 0  7.5 3 0  8 3 0  8.5 3 0  9 3 0  9.5 3 0  10 3 0  0 0 0.1  0.5 0 0.1  1 0 0.1  1.5 0 0.1  2 0 0.1  2.5 0 0.1  3 0 0.1  3.5 0 0.1  4 0 0.1  4.5 0 0.1  5 0 0.1  5.5 0 0.1  6 0 0.1  6.5 0 0.1  7 0 0.1  7.5 0 0.1  8 0 0.1  8.5 0 0.1  9 0 0.1  9.5 0 0.1  10 0 0.1  0 0.5 0.1  0.5 0.5 0.1  1 0.5 0.1  1.5 0.5 0.1  2 0.5 0.1  2.5 0.5 0.1  3 0.5 0.1  3.5 0.5 0.1  4 0.5 0.1  4.5 0.5 0.1  5 0.5 0.1  5.5 0.5 0.1  6 0.5 0.1  6.5 0.5 0.1  7 0.5 0.1  7.5 0.5 0.1  8 0.5 0.1  8.5 0.5 0.1  9 0.5 0.1  9.5 0.5 0.1  10 0.5 0.1  0 1 0.1  0.5 1 0.1  1 1 0.1  1.5 1 0.1  2 1 0.1  2.5 1 0.1  3 1 0.1  3.5 1 0.1  4 1 0.1  4.5 1 0.1  5 1 0.1  5.5 1 0.1  6 1 0.1  6.5 1 0.1  7 1 0.1  7.5 1 0.1  8 1 0.1  8.5 1 0.1  9 1 0.1  9.5 1 0.1  10 1 0.1  0 1.5 0.1  0.5 1.5 0.1  1 1.5 0.1  1.5 1.5 0.1  2 1.5 0.1  2.5 1.5 0.1  3 1.5 0.1  3.5 1.5 0.1  4 1.5 0.1  4.5 1.5 0.1  5 1.5 0.1  5.5 1.5 0.1  6 1.5 0.1  6.5 1.5 0.1  7 1.5 0.1  7.5 1.5 0.1  8 1.5 0.1  8.5 1.5 0.1  9 1.5 0.1  9.5 1.5 0.1  10 1.5 0.1  0 2 0.1  0.5 2 0.1  1 2 0.1  1.5 2 0.1  2 2 0.1  2.5 2 0.1  3 2 0.1  3.5 2 0.1  4 2 0.1  4.5 2 0.1  5 2 0.1  5.5 2 0.1  6 2 0.1  6.5 2 0.1  7 2 0.1  7.5 2 0.1  8 2 0.1  8.5 2 0.1  9 2 0.1  9.5 2 0.1  10 2 0.1  0 2.5 0.1  0.5 2.5 0.1  1 2.5 0.1  1.5 2.5 0.1  2 2.5 0.1  2.5 2.5 0.1  3 2.5 0.1  3.5 2.5 0.1  4 2.5 0.1  4.5 2.5 0.1  5 2.5 0.1  5.5 2.5 0.1  6 2.5 0.1  6.5 2.5 0.1  7 2.5 0.1  7.5 2.5 0.1  8 2.5 0.1  8.5 2.5 0.1  9 2.5 0.1  9.5 2.5 0.1  10 2.5 0.1  0 3 0.1  0.5 3 0.1  1 3 0.1  1.5 3 0.1  2 3 0.1  2.5 3 0.1  3 3 0.1  3.5 3 0.1  4 3 0.1  4.5 3 0.1  5 3 0.1  5.5 3 0.1  6 3 0.1  6.5 3 0.1  7 3 0.1  7.5 3 0.1  8 3 0.1  8.5 3 0.1  9 3 0.1  9.5 3 0.1  10 3 0.1  0 0 0.2  0.5 0 0.2  1 0 0.2  1.5 0 0.2  2 0 0.2  2.5 0 0.2  3 0 0.2  3.5 0 0.2  4 0 0.2  4.5 0 0.2  5 0 0.2  5.5 0 0.2  6 0 0.2  6.5 0 0.2  7 0 0.2  7.5 0 0.2  8 0 0.2  8.5 0 0.2  9 0 0.2  9.5 0 0.2  10 0 0.2  0 0.5 0.2  0.5 0.5 0.2  1 0.5 0.2  1.5 0.5 0.2  2 0.5 0.2  2.5 0.5 0.2  3 0.5 0.2  3.5 0.5 0.2  4 0.5 0.2  4.5 0.5 0.2  5 0.5 0.2  5.5 0.5 0.2  6 0.5 0.2  6.5 0.5 0.2  7 0.5 0.2  7.5 0.5 0.2  8 0.5 0.2  8.5 0.5 0.2  9 0.5 0.2  9.5 0.5 0.2  10 0.5 0.2  0 1 0.2  0.5 1 0.2  1 1 0.2  1.5 1 0.2  2 1 0.2  2.5 1 0.2  3 1 0.2  3.5 1 0.2  4 1 0.2  4.5 1 0.2  5 1 0.2  5.5 1 0.2  6 1 0.2  6.5 1 0.2  7 1 0.2  7.5 1 0.2  8 1 0.2  8.5 1 0.2  9 1 0.2  9.5 1 0.2  10 1 0.2  0 1.5 0.2  0.5 1.5 0.2  1 1.5 0.2  1.5 1.5 0.2  2 1.5 0.2  2.5 1.5 0.2  3 1.5 0.2  3.5 1.5 0.2  4 1.5 0.2  4.5 1.5 0.2  5 1.5 0.2  5.5 1.5 0.2  6 1.5 0.2  6.5 1.5 0.2  7 1.5 0.2  7.5 1.5 0.2  8 1.5 0.2  8.5 1.5 0.2  9 1.5 0.2  9.5 1.5 0.2  10 1.5 0.2  0 2 0.2  0.5 2 0.2  1 2 0.2  1.5 2 0.2  2 2 0.2  2.5 2 0.2  3 2 0.2  3.5 2 0.2  4 2 0.2  4.5 2 0.2  5 2 0.2  5.5 2 0.2  6 2 0.2  6.5 2 0.2  7 2 0.2  7.5 2 0.2  8 2 0.2  8.5 2 0.2  9 2 0.2  9.5 2 0.2  10 2 0.2  0 2.5 0.2  0.5 2.5 0.2  1 2.5 0.2  1.5 2.5 0.2  2 2.5 0.2  2.5 2.5 0.2  3 2.5 0.2  3.5 2.5 0.2  4 2.5 0.2  4.5 2.5 0.2  5 2.5 0.2  5.5 2.5 0.2  6 2.5 0.2  6.5 2.5 0.2  7 2.5 0.2  7.5 2.5 0.2  8 2.5 0.2  8.5 2.5 0.2  9 2.5 0.2  9.5 2.5 0.2  10 2.5 0.2  0 3 0.2  0.5 3 0.2  1 3 0.2  1.5 3 0.2  2 3 0.2  2.5 3 0.2  3 3 0.2  3.5 3 0.2  4 3 0.2  4.5 3 0.2  5 3 0.2  5.5 3 0.2  6 3 0.2  6.5 3 0.2  7 3 0.2  7.5 3 0.2  8 3 0.2  8.5 3 0.2  9 3 0.2  9.5 3 0.2  10 3 0.2  0 0 0.3  0.5 0 0.3  1 0 0.3  1.5 0 0.3  2 0 0.3  2.5 0 0.3  3 0 0.3  3.5 0 0.3  4 0 0.3  4.5 0 0.3  5 0 0.3  5.5 0 0.3  6 0 0.3  6.5 0 0.3  7 0 0.3  7.5 0 0.3  8 0 0.3  8.5 0 0.3  9 0 0.3  9.5 0 0.3  10 0 0.3  0 0.5 0.3  0.5 0.5 0.3  1 0.5 0.3  1.5 0.5 0.3  2 0.5 0.3  2.5 0.5 0.3  3 0.5 0.3  3.5 0.5 0.3  4 0.5 0.3  4.5 0.5 0.3  5 0.5 0.3  5.5 0.5 0.3  6 0.5 0.3  6.5 0.5 0.3  7 0.5 0.3  7.5 0.5 0.3  8 0.5 0.3  8.5 0.5 0.3  9 0.5 0.3  9.5 0.5 0.3  10 0.5 0.3  0 1 0.3  0.5 1 0.3  1 1 0.3  1.5 1 0.3  2 1 0.3  2.5 1 0.3  3 1 0.3  3.5 1 0.3  4 1 0.3  4.5 1 0.3  5 1 0.3  5.5 1 0.3  6 1 0.3  6.5 1 0.3  7 1 0.3  7.5 1 0.3  8 1 0.3  8.5 1 0.3  9 1 0.3  9.5 1 0.3  10 1 0.3  0 1.5 0.3  0.5 1.5 0.3  1 1.5 0.3  1.5 1.5 0.3  2 1.5 0.3  2.5 1.5 0.3  3 1.5 0.3  3.5 1.5 0.3  4 1.5 0.3  4.5 1.5 0.3  5 1.5 0.3  5.5 1.5 0.3  6 1.5 0.3  6.5 1.5 0.3  7 1.5 0.3  7.5 1.5 0.3  8 1.5 0.3  8.5 1.5 0.3  9 1.5 0.3  9.5 1.5 0.3  10 1.5 0.3  0 2 0.3  0.5 2 0.3  1 2 0.3  1.5 2 0.3  2 2 0.3  2.5 2 0.3  3 2 0.3  3.5 2 0.3  4 2 0.3  4.5 2 0.3  5 2 0.3  5.5 2 0.3  6 2 0.3  6.5 2 0.3  7 2 0.3  7.5 2 0.3  8 2 0.3  8.5 2 0.3  9 2 0.3  9.5 2 0.3  10 2 0.3  0 2.5 0.3  0.5 2.5 0.3  1 2.5 0.3  1.5 2.5 0.3  2 2.5 0.3  2.5 2.5 0.3  3 2.5 0.3  3.5 2.5 0.3  4 2.5 0.3  4.5 2.5 0.3  5 2.5 0.3  5.5 2.5 0.3  6 2.5 0.3  6.5 2.5 0.3  7 2.5 0.3  7.5 2.5 0.3  8 2.5 0.3  8.5 2.5 0.3  9 2.5 0.3  9.5 2.5 0.3  10 2.5 0.3  0 3 0.3  0.5 3 0.3  1 3 0.3  1.5 3 0.3  2 3 0.3  2.5 3 0.3  3 3 0.3  3.5 3 0.3  4 3 0.3  4.5 3 0.3  5 3 0.3  5.5 3 0.3  6 3 0.3  6.5 3 0.3  7 3 0.3  7.5 3 0.3  8 3 0.3  8.5 3 0.3  9 3 0.3  9.5 3 0.3  10 3 0.3  0 0 0.4  0.5 0 0.4  1 0 0.4  1.5 0 0.4  2 0 0.4  2.5 0 0.4  3 0 0.4  3.5 0 0.4  4 0 0.4  4.5 0 0.4  5 0 0.4  5.5 0 0.4  6 0 0.4  6.5 0 0.4  7 0 0.4  7.5 0 0.4  8 0 0.4  8.5 0 0.4  9 0 0.4  9.5 0 0.4  10 0 0.4  0 0.5 0.4  0.5 0.5 0.4  1 0.5 0.4  1.5 0.5 0.4  2 0.5 0.4  2.5 0.5 0.4  3 0.5 0.4  3.5 0.5 0.4  4 0.5 0.4  4.5 0.5 0.4  5 0.5 0.4  5.5 0.5 0.4  6 0.5 0.4  6.5 0.5 0.4  7 0.5 0.4  7.5 0.5 0.4  8 0.5 0.4  8.5 0.5 0.4  9 0.5 0.4  9.5 0.5 0.4  10 0.5 0.4  0 1 0.4  0.5 1 0.4  1 1 0.4  1.5 1 0.4  2 1 0.4  2.5 1 0.4  3 1 0.4  3.5 1 0.4  4 1 0.4  4.5 1 0.4  5 1 0.4  5.5 1 0.4  6 1 0.4  6.5 1 0.4  7 1 0.4  7.5 1 0.4  8 1 0.4  8.5 1 0.4  9 1 0.4  9.5 1 0.4  10 1 0.4  0 1.5 0.4  0.5 1.5 0.4  1 1.5 0.4  1.5 1.5 0.4  2 1.5 0.4  2.5 1.5 0.4  3 1.5 0.4  3.5 1.5 0.4  4 1.5 0.4  4.5 1.5 0.4  5 1.5 0.4  5.5 1.5 0.4  6 1.5 0.4  6.5 1.5 0.4  7 1.5 0.4  7.5 1.5 0.4  8 1.5 0.4  8.5 1.5 0.4  9 1.5 0.4  9.5 1.5 0.4  10 1.5 0.4  0 2 0.4  0.5 2 0.4  1 2 0.4  1.5 2 0.4  2 2 0.4  2.5 2 0.4  3 2 0.4  3.5 2 0.4  4 2 0.4  4.5 2 0.4  5 2 0.4  5.5 2 0.4  6 2 0.4  6.5 2 0.4  7 2 0.4  7.5 2 0.4  8 2 0.4  8.5 2 0.4  9 2 0.4  9.5 2 0.4  10 2 0.4  0 2.5 0.4  0.5 2.5 0.4  1 2.5 0.4  1.5 2.5 0.4  2 2.5 0.4  2.5 2.5 0.4  3 2.5 0.4  3.5 2.5 0.4  4 2.5 0.4  4.5 2.5 0.4  5 2.5 0.4  5.5 2.5 0.4  6 2.5 0.4  6.5 2.5 0.4  7 2.5 0.4  7.5 2.5 0.4  8 2.5 0.4  8.5 2.5 0.4  9 2.5 0.4  9.5 2.5 0.4  10 2.5 0.4  0 3 0.4  0.5 3 0.4  1 3 0.4  1.5 3 0.4  2 3 0.4  2.5 3 0.4  3 3 0.4  3.5 3 0.4  4 3 0.4  4.5 3 0.4  5 3 0.4  5.5 3 0.4  6 3 0.4  6.5 3 0.4  7 3 0.4  7.5 3 0.4  8 3 0.4  8.5 3 0.4  9 3 0.4  9.5 3 0.4  10 3 0.4  0 0 0.5  0.5 0 0.5  1 0 0.5  1.5 0 0.5  2 0 0.5  2.5 0 0.5  3 0 0.5  3.5 0 0.5  4 0 0.5  4.5 0 0.5  5 0 0.5  5.5 0 0.5  6 0 0.5  6.5 0 0.5  7 0 0.5  7.5 0 0.5  8 0 0.5  8.5 0 0.5  9 0 0.5  9.5 0 0.5  10 0 0.5  0 0.5 0.5  0.5 0.5 0.5  1 0.5 0.5  1.5 0.5 0.5  2 0.5 0.5  2.5 0.5 0.5  3 0.5 0.5  3.5 0.5 0.5  4 0.5 0.5  4.5 0.5 0.5  5 0.5 0.5  5.5 0.5 0.5  6 0.5 0.5  6.5 0.5 0.5  7 0.5 0.5  7.5 0.5 0.5  8 0.5 0.5  8.5 0.5 0.5  9 0.5 0.5  9.5 0.5 0.5  10 0.5 0.5  0 1 0.5  0.5 1 0.5  1 1 0.5  1.5 1 0.5  2 1 0.5  2.5 1 0.5  3 1 0.5  3.5 1 0.5  4 1 0.5  4.5 1 0.5  5 1 0.5  5.5 1 0.5  6 1 0.5  6.5 1 0.5  7 1 0.5  7.5 1 0.5  8 1 0.5  8.5 1 0.5  9 1 0.5  9.5 1 0.5  10 1 0.5  0 1.5 0.5  0.5 1.5 0.5  1 1.5 0.5  1.5 1.5 0.5  2 1.5 0.5  2.5 1.5 0.5  3 1.5 0.5  3.5 1.5 0.5  4 1.5 0.5  4.5 1.5 0.5  5 1.5 0.5  5.5 1.5 0.5  6 1.5 0.5  6.5 1.5 0.5  7 1.5 0.5  7.5 1.5 0.5  8 1.5 0.5  8.5 1.5 0.5  9 1.5 0.5  9.5 1.5 0.5  10 1.5 0.5  0 2 0.5  0.5 2 0.5  1 2 0.5  1.5 2 0.5  2 2 0.5  2.5 2 0.5  3 2 0.5  3.5 2 0.5  4 2 0.5  4.5 2 0.5  5 2 0.5  5.5 2 0.5  6 2 0.5  6.5 2 0.5  7 2 0.5  7.5 2 0.5  8 2 0.5  8.5 2 0.5  9 2 0.5  9.5 2 0.5  10 2 0.5  0 2.5 0.5  0.5 2.5 0.5  1 2.5 0.5  1.5 2.5 0.5  2 2.5 0.5  2.5 2.5 0.5  3 2.5 0.5  3.5 2.5 0.5  4 2.5 0.5  4.5 2.5 0.5  5 2.5 0.5  5.5 2.5 0.5  6 2.5 0.5  6.5 2.5 0.5  7 2.5 0.5  7.5 2.5 0.5  8 2.5 0.5  8.5 2.5 0.5  9 2.5 0.5  9.5 2.5 0.5  10 2.5 0.5  0 3 0.5  0.5 3 0.5  1 3 0.5  1.5 3 0.5  2 3 0.5  2.5 3 0.5  3 3 0.5  3.5 3 0.5  4 3 0.5  4.5 3 0.5  5 3 0.5  5.5 3 0.5  6 3 0.5  6.5 3 0.5  7 3 0.5  7.5 3 0.5  8 3 0.5  8.5 3 0.5  9 3 0.5  9.5 3 0.5  10 3 0.5  </DataArray>
</Points>
<Cells>
[...]
<PointData  Vectors="f_7-0"> 
<DataArray  type="Float64"  Name="f_7-0"  NumberOfComponents="3" format="ascii">0.0000000000000000e+00 0.0000000000000000e+00 0.0000000000000000e+00  2.2217765766650321e-01 2.2068178308979391e-01 2.9803316520749724e-02  4.2025553762373979e-01 4.2248168453815849e-01 3.2176887832918291e-02  6.5337412273277162e-01 5.8928526126131275e-01 2.8761208683799829e-02  9.9202379374735528e-01 6.5596270794605194e-01 2.3329803740692510e-02  1.3772878978132623e+00 6.5653091204075043e-01 1.7620641693630822e-02  1.7702881760037203e+00 6.4762748737656639e-01 1.5541993281306838e-02  2.1596560472069477e+00 6.4625825100350442e-01 1.6058735090668415e-02  2.5467449834732889e+00 6.4824964315810318e-01 1.6685629230449743e-02  2.9338283951107562e+00 6.4976678770959739e-01 1.6840862898536601e-02  3.3214108601698600e+00 6.5028722194674882e-01 1.6796943770555791e-02  3.7092492265540109e+00 6.5036914778356925e-01 1.6757478049026331e-02  4.0971225404974918e+00 6.5039840933740722e-01 1.6756338348426027e-02  4.4849746146030833e+00 6.5045488092985171e-01 1.6767158631743787e-02  4.8728201869832706e+00 6.5050967073593013e-01 1.6773597213930059e-02  5.2606732596887493e+00 6.5054359269579587e-01 1.6774812101532251e-02  5.6485343580589733e+00 6.5056028402619248e-01 1.6774243291743991e-02  6.0363994522909019e+00 6.5056856286364362e-01 1.6773804169171656e-02  6.4242659027760585e+00 6.5057337034599516e-01 1.6773720211766738e-02  6.8121328384746009e+00 6.5057614220733151e-01 1.6773759271180851e-02  7.2000000000000028e+00 6.5057705642979557e-01 1.6773793732274243e-02  0.0000000000000000e+00 0.0000000000000000e+00 0.0000000000000000e+00  1.0246385200407293e-01 8.2890164453698539e-02 3.4934007081831552e-02  3.1539661189548834e-01 3.0981347162293349e-01 3.4736213013573727e-02  6.1692322036914427e-01 4.3462262106933897e-01 2.6928714053153960e-02  9.8928540933861753e-01 4.6505577912272617e-01 1.7301469812932787e-02  1.3811935399371025e+00 4.5664380308151731e-01 1.4111103768130673e-02  1.7714159098811197e+00 4.5068927123142094e-01 1.5805056673760313e-02  2.1589659599361903e+00 4.5164356735123595e-01 1.6448385166193291e-02  2.5460754534009458e+00 4.5384662176813739e-01 1.6291917554329176e-02  2.9335693788910411e+00 4.5495752958768487e-01 1.6133153513094883e-02  3.3213668336758859e+00 4.5522873805385522e-01 1.6065566501167441e-02  3.7092418487562226e+00 4.5526433263008648e-01 1.6059186643232280e-02  4.0971035242833915e+00 4.5531155672351148e-01 1.6065211698218715e-02  4.4849529938903840e+00 4.5537715630715392e-01 1.6065968112032616e-02  4.8728058295905576e+00 4.5542718453761316e-01 1.6063281058524673e-02  5.2606660870247524e+00 4.5545426128106037e-01 1.6060934750811332e-02  5.6485309131510988e+00 4.5546723157653174e-01 1.6059870674991320e-02  6.0363974851962858e+00 4.5547421349200140e-01 1.6059517470428109e-02  6.4242646777673746e+00 4.5547856494486122e-01 1.6059357021993619e-02  6.8121322333981613e+00 4.5548107868197868e-01 1.6059246358594362e-02  7.2000000000000028e+00 4.5548190625832730e-01 1.6059202761606342e-02  0.0000000000000000e+00 0.0000000000000000e+00 0.0000000000000000e+00  2.6290912307240191e-02 1.4345538320657944e-02 2.8901486349350549e-02  2.4431462342187132e-01 1.7761783508755094e-01 2.6667532322929257e-02  5.9631669223061579e-01 2.5340727230831239e-01 1.9684547631093244e-02  9.9034992492478613e-01 2.6372724158374544e-01 9.4854133988238158e-03  1.3840408490570490e+00 2.5781170492044142e-01 1.3264125399241673e-02  1.7716950527533382e+00 2.5592430688486451e-01 1.6392863330444245e-02  2.1582224955550933e+00 2.5741291798203686e-01 1.6197680422388804e-02  2.5455305920095035e+00 2.5910705239280285e-01 1.5652334289991236e-02  2.9333869685925249e+00 2.5989086586873639e-01 1.5393760212578425e-02  3.3213360277802217e+00 2.6009840309433557e-01 1.5349007480018320e-02  3.7092275683654021e+00 2.6016311177739970e-01 1.5363290601061119e-02  4.0970807573891577e+00 2.6023030345765591e-01 1.5365979700417165e-02  4.4849324194408995e+00 2.6029464999551338e-01 1.5357715444934888e-02  4.8727934305891507e+00 2.6033768759206155e-01 1.5349963333948426e-02  5.2606599830156231e+00 2.6036065309286527e-01 1.5346386123803735e-02  5.6485278138273705e+00 2.6037239015972169e-01 1.5345373584288967e-02  6.0363956294571226e+00 2.6037909237120466e-01 1.5345067037446033e-02  6.4242635318991343e+00 2.6038321974011042e-01 1.5344816297109230e-02  6.8121316781012666e+00 2.6038551335510274e-01 1.5344610561331332e-02  7.2000000000000028e+00 2.6038625054887782e-01 1.5344530400633218e-02  0.0000000000000000e+00 0.0000000000000000e+00 0.0000000000000000e+00  8.0450990300521986e-03 1.7501651088936396e-02 2.3954098604768305e-02  2.0067327807926244e-01 1.3252019451964456e-02 3.3314347353508023e-02  5.8783249568417262e-01 5.0358350712575981e-02 4.0567406857166836e-03  9.9122900119405777e-01 5.7333785266330796e-02 7.5882338130931386e-03  1.3843522846230853e+00 6.0509934580833084e-02 1.4510686895241289e-02  1.7714332667194890e+00 6.2301317291200489e-02 1.5895413609704395e-02  2.1577212047197869e+00 6.3316495935839268e-02 1.5523806605377862e-02  2.5451829144603386e+00 6.4109837863764493e-02 1.4913033686474704e-02  2.9332415055345882e+00 6.4636743377184197e-02 1.4648213661929201e-02  3.3212844043387681e+00 6.4914777592311887e-02 1.4633364798245204e-02  3.7091978718794087e+00 6.5060788431305985e-02 1.4654960068729074e-02  4.0970560977597854e+00 6.5149108789395241e-02 1.4654385925876024e-02  4.4849145951533789e+00 6.5206210392686745e-02 1.4642904429496275e-02  4.8727828119769514e+00 6.5242033918723880e-02 1.4634385524386525e-02  5.2606542255133917e+00 6.5263454237976234e-02 1.4631171907773707e-02  5.6485246171398193e+00 6.5275929753124629e-02 1.4630485060307539e-02  6.0363937388227216e+00 6.5283174404078312e-02 1.4630282627979175e-02  6.4242624366074175e+00 6.5287322673879988e-02 1.4630045052418373e-02  6.8121311714409751e+00 6.5289472495778059e-02 1.4629842085703825e-02  7.2000000000000028e+00 6.5290142188118114e-02 1.4629766175641996e-02  0.0000000000000000e+00 0.0000000000000000e+00 0.0000000000000000e+00  3.5177111413626214e-02 3.7410520285976337e-03 3.1720391205688189e-02  2.2170933101775725e-01 -1.1909350849217731e-01 3.6091869674967400e-02  5.8510133975577128e-01 -1.6688159604697894e-01 8.2236688308776800e-04  9.8798864125870012e-01 -1.4921752863257565e-01 1.0654179779715179e-02  1.3824108872326291e+00 -1.3671764974116651e-01 1.3640714077560271e-02  1.7707021426451959e+00 -1.3161165289234067e-01 1.4701178582543306e-02  2.1575790800406671e+00 -1.3085961352672196e-01 1.4599738063425630e-02  2.5450628464836709e+00 -1.3096532387374701e-01 1.4114263602246189e-02  2.9331068324039444e+00 -1.3069570990853258e-01 1.3903345705551712e-02  3.3211910332494332e+00 -1.3031077608239375e-01 1.3900284140122421e-02  3.7091469310147223e+00 -1.3005909977957286e-01 1.3925939374208893e-02  4.0970299997176109e+00 -1.2994137258556115e-01 1.3929951791068030e-02  4.4848999197331469e+00 -1.2988872101107765e-01 1.3922613215635222e-02  4.8727734880686819e+00 -1.2985807620640466e-01 1.3916930769056477e-02  5.2606482173645013e+00 -1.2983651212866734e-01 1.3915082691511498e-02  5.6485209759365365e+00 -1.2982214260623842e-01 1.3914972793808059e-02  6.0363916729965279e+00 -1.2981369315022956e-01 1.3915072956142145e-02  6.4242613406116211e+00 -1.2980918687090645e-01 1.3915027354050090e-02  6.8121306952792127e+00 -1.2980702338666783e-01 1.3914938215443503e-02  7.2000000000000028e+00 -1.2980637782928817e-01 1.3914898264566723e-02  0.0000000000000000e+00 0.0000000000000000e+00 0.0000000000000000e+00  9.1988020697709019e-02 -5.1339299546068737e-02 3.8285417343414639e-02  3.1395952993837373e-01 -2.4655327503231145e-01 2.3834999294077657e-02  5.9075030476005908e-01 -3.6149903162542779e-01 2.2201794771476321e-02  9.8155210007155114e-01 -3.5587741571746967e-01 8.6129709383086419e-03  1.3782953497119110e+00 -3.3589397424799849e-01 1.2105623958370901e-02  1.7694552295268298e+00 -3.2691590729836700e-01 1.3128187992809936e-02  2.1576386601860507e+00 -3.2539582750750023e-01 1.3376330259579794e-02  2.5451444263440548e+00 -3.2593912552822152e-01 1.3265360692839064e-02  2.9329948956176861e+00 -3.2598139957667671e-01 1.3152185860895990e-02  3.3210564617259215e+00 -3.2556886114243938e-01 1.3145418339340338e-02  3.7090711299359191e+00 -3.2521756042467959e-01 1.3176625074960528e-02  4.0969994311141438e+00 -3.2505206469951953e-01 1.3193819637083996e-02  4.4848867666160679e+00 -3.2499075069719813e-01 1.3197641292486842e-02  4.8727648265214762e+00 -3.2496089087993302e-01 1.3197721596345326e-02  5.2606416888793186e+00 -3.2493849406211311e-01 1.3198046934045559e-02  5.6485166978189696e+00 -3.2492192040207957e-01 1.3198813986329359e-02  6.0363892859734420e+00 -3.2491173509079807e-01 1.3199452504324556e-02  6.4242601555249141e+00 -3.2490640575837232e-01 1.3199780377662533e-02  6.8121302111834412e+00 -3.2490397467962467e-01 1.3199900537671632e-02  7.2000000000000028e+00 -3.2490328603892799e-01 1.3199926952916854e-02  0.0000000000000000e+00 0.0000000000000000e+00 0.0000000000000000e+00  2.0667016219802756e-01 -1.9087294054660539e-01 2.6948497756460660e-02  4.1639529293706840e-01 -3.6517943599334640e-01 2.3097787499209068e-02  6.2993591668384830e-01 -5.0865234202831333e-01 3.4123550667098143e-02  9.7450045833027721e-01 -5.5997487747571317e-01 1.1817798630644492e-02  1.3725044892319238e+00 -5.3792234262162042e-01 9.1250053569336617e-03  1.7674128339420128e+00 -5.2449317323601341e-01 1.1101307795162824e-02  2.1575255080875961e+00 -5.2064264831490192e-01 1.1937534198938860e-02  2.5453432401116887e+00 -5.2076730843907892e-01 1.2331855121678208e-02  2.9329444121485637e+00 -5.2111501399841442e-01 1.2371425210988812e-02  3.3209042934530646e+00 -5.2083529563279296e-01 1.2374867584034024e-02  3.7089694228886572e+00 -5.2042879947677956e-01 1.2412606416807522e-02  4.0969576374668772e+00 -5.2019399522092569e-01 1.2448613016791841e-02  4.4848714767466760e+00 -5.2010226684965521e-01 1.2468473216488576e-02  4.8727560124693809e+00 -5.2006567144042248e-01 1.2476641818170544e-02  5.2606346547307030e+00 -5.2004193761180195e-01 1.2480079934082065e-02  5.6485117289072058e+00 -5.2002345938696182e-01 1.2482112912177901e-02  6.0363864212752967e+00 -5.2001117444679801e-01 1.2483500261772690e-02  6.4242587533743354e+00 -5.2000446811130530e-01 1.2484336717637512e-02  6.8121296584023705e+00 -5.2000142669799809e-01 1.2484738753889823e-02  7.2000000000000028e+00 -5.2000058055024323e-01 1.2484858397030162e-02  0.0000000000000000e+00 0.0000000000000000e+00 0.0000000000000000e+00  2.2217492215444248e-01 2.2131081772165503e-01 1.9418705554039430e-02  4.2120380292730780e-01 4.2256629884203312e-01 1.8000496186894595e-02  6.5627728292436638e-01 5.8803543669746117e-01 1.5891029336698493e-02  9.9164315411249726e-01 6.5699384567407848e-01 1.5005904179214300e-02  1.3763783584457132e+00 6.5812357204390060e-01 1.1176514638321805e-02  1.7701661467163952e+00 6.4787305423908237e-01 8.8440392705685343e-03  2.1598414550898060e+00 6.4611093614458592e-01 8.8621332847964550e-03  2.5468327692592632e+00 6.4831619530010776e-01 9.4141902294994223e-03  2.9338408778542560e+00 6.4996480721229821e-01 9.6412939799995819e-03  3.3214061575526070e+00 6.5050998151941153e-01 9.6459938229186467e-03  3.7092478623794785e+00 6.5058462037921505e-01 9.6177388497982706e-03  4.0971245561638652e+00 6.5060967650372958e-01 9.6139252793886066e-03  4.4849765874448524e+00 6.5066793964174985e-01 9.6227539503548516e-03  4.8728210105980319e+00 6.5072551178419835e-01 9.6298011966032271e-03  5.2606733936368446e+00 6.5076084189261785e-01 9.6322186347449525e-03  5.6485343409464068e+00 6.5077784398301519e-01 9.6323531095319943e-03  6.0363994642211205e+00 6.5078611084849269e-01 9.6321613699926513e-03  6.4242659325985700e+00 6.5079092381429737e-01 9.6321547242031146e-03  6.8121328568159871e+00 6.5079373584098066e-01 9.6322327235831839e-03  7.2000000000000028e+00 6.5079467664676116e-01 9.6322792997659921e-03  0.0000000000000000e+00 0.0000000000000000e+00 0.0000000000000000e+00  1.0600358430056180e-01 8.7607311139975400e-02 2.1222401689463873e-02  3.1863409744240095e-01 3.0985889580726311e-01 2.0571369930189039e-02  6.1798495430752243e-01 4.3505519196291464e-01 1.6390086156914688e-02  9.8852773746746891e-01 4.6708000368218594e-01 1.0414758217530292e-02  1.3809046469072346e+00 4.5722253102801874e-01 7.8268078987349370e-03  1.7716243387155810e+00 4.5047368940134885e-01 8.7607573043078975e-03  2.1590755801779209e+00 4.5163226599503931e-01 9.1645329747964098e-03  2.5460907619365321e+00 4.5401711765807840e-01 9.0678963030735044e-03  2.9335648408027302e+00 4.5517896261674184e-01 8.9725262591828763e-03  3.3213657107982271e+00 4.5544671485974675e-01 8.9268914818470078e-03  3.7092441501431623e+00 4.5547548395284099e-01 8.9194971156788868e-03  4.0971056492740683e+00 4.5552318399815422e-01 8.9218019341585318e-03  4.4849538468812042e+00 4.5559193482949822e-01 8.9220619226773757e-03  4.8728059380185087e+00 4.5564402988223096e-01 8.9204562340621830e-03  5.2606660435360073e+00 4.5567174602062932e-01 8.9189792124501118e-03  5.6485309147911655e+00 4.5568476975605110e-01 8.9182534503956089e-03  6.0363975143273079e+00 4.5569174924544992e-01 8.9179870166788393e-03  6.4242646985955192e+00 4.5569614082088167e-01 8.9178664577296025e-03  6.8121322400750470e+00 4.5569869771953514e-01 8.9177901141665305e-03  7.2000000000000028e+00 4.5569954287540748e-01 8.9177611754562812e-03  0.0000000000000000e+00 0.0000000000000000e+00 0.0000000000000000e+00  2.5360609152859939e-02 1.4634773013733216e-02 1.6109559206129439e-02  2.4861391851653764e-01 1.8103423098222735e-01 1.5363702393382545e-02  5.9629901574288025e-01 2.5612269482601102e-01 1.1635566572628294e-02  9.9011854817728329e-01 2.6488749270857986e-01 4.5416328626519389e-03  1.3845162895850476e+00 2.5741912439328341e-01 6.7406844685367643e-03  1.7719133748139353e+00 2.5583937117360761e-01 8.9808665977644357e-03  2.1582401517536822e+00 2.5757242262557423e-01 8.8823833991543786e-03  2.5455149534401706e+00 2.5933425364559048e-01 8.4813607710661435e-03  2.9333822620993431e+00 2.6011565004088272e-01 8.2688013188283692e-03  3.3213395816773081e+00 2.6031277582119228e-01 8.2192450050230167e-03  3.7092312481058154e+00 2.6037538116478987e-01 8.2223670476708685e-03  4.0970820794801606e+00 2.6044501301643830e-01 8.2216652473522823e-03  4.4849323934439846e+00 2.6051152933412181e-01 8.2145434716351540e-03  4.8727932046474303e+00 2.6055531391373443e-01 8.2081472395746508e-03  5.2606599142063413e+00 2.6057830757366524e-01 8.2050131342534284e-03  5.6485278377799748e+00 2.6058998668242367e-01 8.2039856040792957e-03  6.0363956555313463e+00 2.6059669680713393e-01 8.2036334470154456e-03  6.4242635388296350e+00 2.6060085569063579e-01 8.2033963256711757e-03  6.8121316766148166e+00 2.6060316934714661e-01 8.2032215555838638e-03  7.2000000000000028e+00 2.6060391195716870e-01 8.2031555473071720e-03  0.0000000000000000e+00 0.0000000000000000e+00 0.0000000000000000e+00  9.7679954750403246e-03 1.5263221131589341e-02 1.3955042963384418e-02  2.0008898562542254e-01 1.3061417256553744e-02 1.8662053433202173e-02  5.8829587942707740e-01 5.3371235319689098e-02 1.3504845419923010e-03  9.9242499067683376e-01 5.6489712610285202e-02 2.8726782065356775e-03  1.3848947084740715e+00 6.0296651455309949e-02 7.4919721666879963e-03  1.7715400953265013e+00 6.2487284672595844e-02 8.4577333146596909e-03  2.1577035588881484e+00 6.3591011091473054e-02 8.2194294920567360e-03  2.5451668016897546e+00 6.4355017988760019e-02 7.7693081608532291e-03  2.9332432034297553e+00 6.4860007681610043e-02 7.5427759092925725e-03  3.3212904237681977e+00 6.5131140193981835e-02 7.5089649769869487e-03  3.7092009943217867e+00 6.5277855253554465e-02 7.5145257606634656e-03  4.0970565085115158e+00 6.5367573457931871e-02 7.5106029714156648e-03  4.4849142055966800e+00 6.5424812286369829e-02 7.5006919518459123e-03  4.8727825774225018e+00 6.5460196106350149e-02 7.4933532637291144e-03  5.2606542011823878e+00 6.5481293967769916e-02 7.4902302668942719e-03  5.6485246464495109e+00 6.5493662096175645e-02 7.4893032085544403e-03  6.0363937511698680e+00 6.5500887900502652e-02 7.4889617821751577e-03  6.4242624335079288e+00 6.5505027315620731e-02 7.4887039923642786e-03  6.8121311668178350e+00 6.5507166280413989e-02 7.4885177158973580e-03  7.2000000000000028e+00 6.5507829788463492e-02 7.4884507325628895e-03  0.0000000000000000e+00 0.0000000000000000e+00 0.0000000000000000e+00  3.4683194545961672e-02 1.3603185712489135e-03 1.7820083229415695e-02  2.2214855745860959e-01 -1.1659408389403868e-01 2.0360475766858111e-02  5.8744964574688230e-01 -1.7022316235628540e-01 -1.7043411084377937e-03  9.8945545126658729e-01 -1.4920993093799054e-01 5.0572062680231825e-03  1.3827538084146482e+00 -1.3655557355593462e-01 6.8072322773059437e-03  1.7707485025736946e+00 -1.3120107857244470e-01 7.4337657345239757e-03  2.1575654123876493e+00 -1.3052131411549089e-01 7.3305408852045910e-03  2.5450605108199311e+00 -1.3071250765756937e-01 6.9669110637508424e-03  2.9331147248635330e+00 -1.3047075350677090e-01 6.7985277075454835e-03  3.3211977345428645e+00 -1.3008802700270911e-01 6.7802735416353753e-03  3.7091491784837411e+00 -1.2983587924129647e-01 6.7893293361996751e-03  4.0970300292065245e+00 -1.2971948823865237e-01 6.7883735488290546e-03  4.4848996518719080e+00 -1.2966881678926856e-01 6.7814223671482593e-03  4.8727734326866274e+00 -1.2963946458983139e-01 6.7763841599764712e-03  5.2606482656891869e+00 -1.2961842542847446e-01 6.7744496311414977e-03  5.6485210121611118e+00 -1.2960422737219285e-01 6.7740126200470452e-03  6.0363916807004987e+00 -1.2959586078364640e-01 6.7738992595087963e-03  6.4242613378366489e+00 -1.2959141650688605e-01 6.7737791523328553e-03  6.8121306929585446e+00 -1.2958929295344512e-01 6.7736763481502371e-03  7.2000000000000028e+00 -1.2958866230131932e-01 6.7736368942974386e-03  0.0000000000000000e+00 0.0000000000000000e+00 0.0000000000000000e+00  9.2969997472654053e-02 -5.1608939533132864e-02 2.1623641992875663e-02  3.1638657580116064e-01 -2.4835377126255759e-01 1.2596959084840164e-02  5.9215495760415449e-01 -3.6436432719826811e-01 1.2057295113606481e-02  9.8261794886885190e-01 -3.5573687166042106e-01 3.5922503425116340e-03  1.3786534331809945e+00 -3.3513530143899728e-01 5.5816296922466960e-03  1.7694703967847329e+00 -3.2639430250700791e-01 6.1420596589001160e-03  2.1576565485711505e+00 -3.2501414487110386e-01 6.1840826270175382e-03  2.5451622351875831e+00 -3.2567253759809073e-01 6.0922691587529101e-03  2.9330078523285708e+00 -3.2574945889507084e-01 6.0299917256281931e-03  3.3210631044790633e+00 -3.2533844622402536e-01 6.0279315116185603e-03  3.7090732451595367e+00 -3.2498862706539516e-01 6.0466089037983332e-03  4.0969999280726572e+00 -3.2482746582835287e-01 6.0558947542921340e-03  4.4848870400448524e+00 -3.2476980930748134e-01 6.0574996492604987e-03  4.8727650674802225e+00 -3.2474181392971824e-01 6.0573916112609642e-03  5.2606418393534016e+00 -3.2472011904751846e-01 6.0576056197064257e-03  5.6485167647636754e+00 -3.2470381881132976e-01 6.0580799627755876e-03  6.0363893110576843e+00 -3.2469379562307465e-01 6.0584521344972204e-03  6.4242601665777466e+00 -3.2468857817750657e-01 6.0586346598118790e-03  6.8121302169560760e+00 -3.2468620979295126e-01 6.0587007599647007e-03  7.2000000000000028e+00 -3.2468554200736721e-01 6.0587173248903030e-03  0.0000000000000000e+00 0.0000000000000000e+00 0.0000000000000000e+00  2.0641977415757287e-01 -1.8970541997973892e-01 1.7612246692582659e-02  4.1983414239402994e-01 -3.6933066411680121e-01 1.3491135087369746e-02  6.3226472041485582e-01 -5.0971877221649353e-01 1.9174069098841100e-02  9.7430245712900609e-01 -5.6113119064778316e-01 5.5910037975135697e-03  1.3728758551567546e+00 -5.3674307381078967e-01 3.3200910197058154e-03  1.7675031186360413e+00 -5.2385384967361248e-01 4.4660619626203423e-03  2.1575833475396595e+00 -5.2024593378658424e-01 4.8590674160852877e-03  2.5453885869870265e+00 -5.2047861313332067e-01 5.1347683063539210e-03  2.9329642106919769e+00 -5.2087003981360691e