<?xml version="1.0"?>
<VTKFile type="UnstructuredGrid"  version="0.1"  >
<UnstructuredGrid>
<Piece  NumberOfPoints="107" NumberOfCells="290">
<Points>
<DataArray  type="Float64"  NumberOfComponents="3"  format="ascii">0.1466855526147347 -1.464880016853866 2.2297974104337  0.03653064831300958 -1.996402045182105 2.459535282061257  0.4182078247438861 -1.953068608486724 2.399152904188485  0.3606546971297125 -1.571158736162652 2.586357545217903  -0.04369448314686741 -1.9956964690359 2.079055695557334  -0.08831675386205026 -1.592209287680673 2.5786718043508  -0.4597234839101871 -1.940474970960854 2.365577208844509  0.708221843788238 -1.311703949689869 1.769051025256928  0.7911968624075247 -1.83395264362245 1.495263286014477  0.477219149204427 -1.935167718916343 1.889112662052278  0.2683758495222019 -1.490673620404064 1.475667784107566  0.07503473923697349 -0.9926097232320116 3  0.5289722636881395 -0.8456865231038897 3  0.3150958902771757 -1.466099679343499 3  -0.7388634075939597 -1.312816839320978 0  -0.5715818319253561 -1.466126416576961 0.4872632822601926  -0.790979724086402 -1.834068706473131 0  -0.4336968377143349 -1.444224541082522 0  0.5942163908489371 -1.374481420233743 0  0.7270811635437457 -1.27490888061952 0.5462966671918753  0.9958825989361997 -1.724545838077583 0  0.8720618164091423 -1.226870877129539 0  -0.6020906612473962 -0.7932912835157278 0.5300545641521022  -0.8836349378529436 -0.457975773256652 0.6404787520590902  -1.023790947274213 -0.8542189253140726 0.4828357610848663  -0.602090661247396 -0.793291283515728 0.9479788500445958  0.6403047911642088 -1.885696230283868 3  0.1878647545340524 -1.981496936684592 3  -0.2308620053190963 -1.551539094294586 1.717794458136412  0.6612847082440421 -1.340114905463987 1.108893916461269  0.3402362675669802 -0.9367557391813275 1.488714204061065  0.7623538123515461 -1.256718477748746 2.327019461856683  0.3106111190640441 -0.9457424297310684 2.455385688454125  -0.4857392175468291 -1.371645797971567 0.9777955730243429  -0.08925624373007968 -0.9912090272966354 1.19456677684017  -0.4903859489869041 -0.8663113380070018 1.393053778537583  -0.1244862568658107 -0.9877391738626058 1.721971119438714  0.06424814067857221 -1.462513542149503 0.8252938567089958  -0.2165167111830255 -1.978674965265306 1.059418840454187  0.08389629142111744 -1.655366426983338 0.4668966795233791  0.791196862407529 -1.833952643622447 0.6178951048582574  0.5289722636881395 -0.8456865231038897 0  0.03296184272064258 -1.996753541853206 1.470035164610787  -0.1161671093212523 -1.988558538379005 0.5893077665132739  -0.5709179202917509 -1.906744507448919 0.7425624981256993  -0.980070800056786 -1.125754826208231 3  -0.6770621552545111 -1.440335389723069 2.547962905353221  -0.3959824170308197 -0.9167710771106152 3  -0.7190450405593261 -1.327004400341191 3  -0.3468272391397816 -1.965840498494632 0  1.190141907336153 -1.598104417287789 0.4925706892513765  1.190141907336153 -1.598104417287789 0.8563357173958452  -1.174791349590177 -0.9094291444928995 0.8802318284181406  -1.409798914277625 -0.6679439708724926 0.4913454550270371  -1.669846618080803 -1.098217641777695 0.6009630440378566  -0.6020906612473962 -0.7932912835157279 1.83812870703057  -0.5900354956293314 -1.324143296241473 2.103137356765529  -0.1651501800698811 -0.983734127000229 0.5969377823733698  0.3106111190640441 -0.9457424297310684 0.7462197467252456  -1.018560038870415 -1.71242449389789 1.576920919911467  -0.9375070007058002 -1.21441520490972 1.304121182405259  -0.5709179202917503 -1.906744507448919 1.406703321415089  -0.3959824170308197 -0.9167710771106152 0  0.07503473923697349 -0.9926097232320116 0  -0.9319352925012672 -1.758726385481112 2.318592313341751  -0.7236795068748532 -1.860404786776339 3  -1.133590325026899 -1.644515101476795 3  -0.2745715643189928 -1.972957061308251 3  -1.368987970497773 -1.451329246427844 1.001457618045887  0.8554989589222524 -1.799582456970345 2.209213972832537  -0.6635133589578226 -1.8786559882124 1.904906559684864  0.5708258614053336 -1.906772433206811 0  0.3464861608853899 -1.965874091770562 0.856433407986938  -1.189714972496138 -1.598454793656055 0  0.7107565992223575 -0.7026594650421584 0.5940424139960392  -1.265262896562099 -0.8023424832773869 0  -1.52475830114287 -1.279514408446922 0  -1.46329451150738 -1.354408252813766 1.485647995083955  0.3106111190640441 -0.9457424297310683 2.019183301627643  0.1156090797132645 -1.98861349949821 0  0.3464861608853897 -1.965874091770562 0.4925554439923391  -0.1651501800698811 -0.983734127000229 2.339300090882985  -0.04032839592422331 -1.496137616193746 0  -0.9953960999118104 -1.724805877223749 0.589164572283019  -0.9111808473067255 -1.769819867558075 1.074632909770394  -0.7740713825566979 -0.6255101783274258 0  -0.9807852804032304 -0.1950903220161286 0  0.2795146413358696 -1.473237322288573 0  1.369313844397707 -1.451061808629684 0  -1.699069305881103 -1.043545838264532 1.110902756623406  0.7161053535746666 -0.6961419890063658 1.760380501766661  0.7166668731150645 -0.6954577754667042 2.339452448918369  -0.403987253350199 -1.442708009741119 3  -1.368987970497772 -1.451329246427846 0.5557687146334345  -1.126481124092755 -0.9473283376278889 2.074233125962432  -1.312762776967178 -1.497472070268641 1.943469646961802  -1.30970718391028 -1.49997973068384 2.410467318031572  0.6323455388869392 -1.360584364588522 3  1.05991474732676 -1.690319941703975 3  -0.001500137293081391 -1.502222640736669 3  0.7166668731150645 -0.6954577754667044 1.218435799795285  -0.602090661247396 -0.793291283515728 2.439227975407248  -0.8667404926794215 -0.4895830570665023 1.393053778537582  -0.7740713825566979 -0.6255101783274258 3  -1.066463060614341 -1.047726994117002 0  -1.47869799332213 -1.335639055916161 3  0.9078240641332871 -1.196731419014272 3  </DataArray>
</Points>
<Cells>
<DataArray  type="UInt32"  Name="connectivity"  format="ascii">0 1 2 3  0 4 5 6  7 8 9 10  3 11 12 13  14 15 16 17  18 19 20 21  22 23 24 25  2 3 26 27  0 4 9 28  7 10 29 30  0 3 31 32  25 33 34 35  10 30 34 36  10 33 37 38  19 37 39 40  18 19 21 41  10 28 38 42  15 37 43 44  45 46 47 48  15 39 43 49  19 40 50 51  24 52 53 54  35 36 55 56  15 33 37 57  29 30 34 58  10 29 30 34  28 59 60 61  15 57 62 63  46 64 65 66  6 46 65 67  14 15 17 62  33 52 60 68  45 46 48 66  2 3 26 69  1 3 5 27  0 4 6 28  28 38 42 61  28 42 61 70  19 20 40 71  10 37 42 72  19 29 40 51  14 15 16 73  10 37 38 42  19 37 40 72  19 29 58 74  24 53 75 76  3 12 31 32  29 34 37 58  59 60 68 77  7 10 30 78  39 43 79 80  10 28 33 38  0 36 78 81  28 33 35 60  7 8 10 29  0 2 3 69  15 39 49 82  34 37 57 58  33 44 83 84  53 75 85 86  10 29 34 37  15 39 63 82  37 39 43 72  39 63 82 87  19 20 50 88  19 39 40 80  60 68 77 89  15 16 44 49  31 90 78 91  46 47 48 92  24 54 76 93  5 46 47 92  24 53 54 76  94 95 56 60  46 56 64 96  24 25 33 52  24 53 85 86  23 24 52 53  5 11 47 92  14 15 24 73  19 40 71 80  8 29 40 51  0 5 11 81  3 26 97 98  3 13 27 99  7 29 30 100  46 64 66 96  0 1 3 5  19 39 71 80  15 73 83 93  60 68 83 84  3 13 26 27  28 35 56 60  1 4 5 6  0 5 6 56  14 15 24 62  23 24 25 52  24 52 54 93  33 38 44 61  0 3 31 69  10 33 34 37  94 55 56 60  25 33 34 57  15 24 83 93  19 29 37 72  19 29 40 72  22 24 25 33  15 33 44 83  0 5 56 81  5 46 67 92  39 71 79 80  95 56 59 70  95 56 64 96  95 56 64 70  28 56 59 60  35 55 56 60  3 13 26 97  6 46 64 65  9 10 28 42  0 9 10 28  39 79 82 87  7 31 90 78  24 53 75 85  45 46 66 96  15 22 33 57  15 17 49 82  0 7 9 10  25 33 35 60  4 6 28 70  8 10 29 72  37 39 40 72  15 17 62 63  7 30 90 78  5 11 47 81  0 7 31 69  15 22 57 62  15 17 63 82  28 33 60 61  94 45 46 96  45 46 47 101  19 37 39 58  4 28 42 70  36 55 56 81  19 20 21 88  33 44 61 84  10 29 37 72  1 5 6 67  33 60 68 83  25 52 102 60  25 33 52 60  1 2 3 27  94 46 56 96  46 48 65 92  8 9 10 42  8 10 42 72  19 20 40 50  103 45 47 101  3 11 13 99  3 26 31 98  0 7 10 78  94 45 46 101  46 47 101 81  24 73 76 104  46 48 65 66  46 65 67 92  3 12 13 97  6 56 64 70  35 102 55 60  4 9 28 42  3 11 12 32  46 56 101 81  39 40 72 80  15 33 37 44  26 31 69 98  3 26 31 69  6 46 56 64  0 28 36 81  0 6 28 56  59 60 68 84  8 29 40 72  95 59 64 70  52 60 68 89  33 60 61 84  5 27 67 99  5 6 46 67  0 28 56 81  39 71 79 87  15 43 44 49  33 34 37 57  15 16 17 49  45 66 96 105  29 30 58 100  12 31 32 91  95 59 60 77  29 58 100 74  14 24 62 104  24 62 85 104  23 24 85 86  23 24 53 86  24 75 76 104  24 75 85 104  15 16 44 83  15 16 73 83  10 28 33 34  3 31 97 98  31 97 98 106  3 5 27 99  0 3 5 11  0 2 9 69  0 1 4 5  0 10 28 36  15 37 39 43  19 29 37 58  0 10 36 78  28 59 61 70  95 56 59 60  59 60 61 84  33 37 38 44  5 46 56 81  0 3 11 32  28 56 59 70  6 28 56 70  28 33 38 61  7 30 100 90  7 8 9 69  5 6 46 56  31 32 78 91  37 38 43 72  0 7 31 78  10 30 36 78  55 56 101 81  94 55 56 101  94 95 56 96  10 28 34 36  52 68 83 93  22 25 33 57  33 52 68 83  52 54 68 89  52 54 68 93  14 24 73 104  22 24 62 85  15 22 24 62  22 23 24 85  23 25 52 102  15 22 24 33  15 24 52 83  15 24 73 93  24 52 83 93  15 24 33 52  15 33 52 83  24 73 76 93  37 39 58 63  0 2 4 9  0 1 2 4  0 7 9 69  1 5 27 67  5 67 92 99  5 11 92 99  3 5 11 99  0 11 32 81  0 32 78 81  94 46 56 101  25 35 102 60  37 38 43 44  37 38 42 72  37 57 58 63  5 46 47 81  28 33 34 35  28 34 35 36  28 35 36 56  28 36 56 81  33 60 83 84  39 43 72 80  12 31 97 106  19 41 58 74  19 41 58 63  18 19 71 87  18 19 63 87  18 19 41 63  18 19 20 71  3 12 31 97  0 31 32 78  37 39 57 63  15 37 39 57  15 39 57 63  19 39 58 63  19 39 63 87  19 39 71 87  39 49 79 82  39 43 49 79  </DataArray>
<DataArray  type="UInt32"  Name="offsets"  format="ascii">4 8 12 16 20 24 28 32 36 40 44 48 52 56 60 64 68 72 76 80 84 88 92 96 100 104 108 112 116 120 124 128 132 136 140 144 148 152 156 160 164 168 172 176 180 184 188 192 196 200 204 208 212 216 220 224 228 232 236 240 244 248 252 256 260 264 268 272 276 280 284 288 292 296 300 304 308 312 316 320 324 328 332 336 340 344 348 352 356 360 364 368 372 376 380 384 388 392 396 400 404 408 412 416 420 424 428 432 436 440 444 448 452 456 460 464 468 472 476 480 484 488 492 496 500 504 508 512 516 520 524 528 532 536 540 544 548 552 556 560 564 568 572 576 580 584 588 592 596 600 604 608 612 616 620 624 628 632 636 640 644 648 652 656 660 664 668 672 676 680 684 688 692 696 700 704 708 712 716 720 724 728 732 736 740 744 748 752 756 760 764 768 772 776 780 784 788 792 796 800 804 808 812 816 820 824 828 832 836 840 844 848 852 856 860 864 868 872 876 880 884 888 892 896 900 904 908 912 916 920 924 928 932 936 940 944 948 952 956 960 964 968 972 976 980 984 988 992 996 1000 1004 1008 1012 1016 1020 1024 1028 1032 1036 1040 1044 1048 1052 1056 1060 1064 1068 1072 1076 1080 1084 1088 1092 1096 1100 1104 1108 1112 1116 1120 1124 1128 1132 1136 1140 1144 1148 1152 1156 1160 </DataArray>
<DataArray  type="UInt8"  Name="types"  format="ascii">10 10 10 10 10 10 10 10 10 10 10 10 10 10 10 10 10 10 10 10 10 10 10 10 10 10 10 10 10 10 10 10 10 10 10 10 10 10 10 10 10 10 10 10 10 10 10 10 10 10 10 10 10 10 10 10 10 10 10 10 10 10 10 10 10 10 10 10 10 10 10 10 10 10 10 10 10 10 10 10 10 10 10 10 10 10 10 10 10 10 10 10 10 10 10 10 10 10 10 10 10 10 10 10 10 10 10 10 10 10 10 10 10 10 10 10 10 10 10 10 10 10 10 10 10 10 10 10 10 10 10 10 10 10 10 10 10 10 10 10 10 10 10 10 10 10 10 10 10 10 10 10 10 10 10 10 10 10 10 10 10 10 10 10 10 10 10 10 10 10 10 10 10 10 10 10 10 10 10 10 10 10 10 10 10 10 10 10 10 10 10 10 10 10 10 10 10 10 10 10 10 10 10 10 10 10 10 10 10 10 10 10 10 10 10 10 10 10 10 10 10 10 10 10 10 10 10 10 10 10 10 10 10 10 10 10 10 10 10 10 10 10 10 10 10 10 10 10 10 10 10 10 10 10 10 10 10 10 10 10 10 10 10 10 10 10 10 10 10 10 10 10 10 10 10 10 10 10 10 10 10 10 10 10 10 10 10 10 10 10 </DataArray>
</Cells>
<PointData  Vectors="f_18"> 
<DataArray  type="Float64"  Name="f_18"  NumberOfComponents="3" format="ascii">8.1671608349336280e-06 -8.5080122346445805e-05 -1.3347582705034094e-05  1.0069755071658845e-06 -7.1282549201819208e-05 -1.7850205263342327e-05  1.4287765918761969e-05 -6.9849478473571976e-05 -1.6656922002723997e-05  1.7369998362664376e-05 -7.7964515656698101e-05 -1.9929173370636442e-05  -2.0413149816232056e-06 -7.1085349782891576e-05 -1.1235592592785880e-05  -5.1316402410566384e-06 -8.0607637079595549e-05 -1.9773289475434483e-05  -1.7002229858780807e-05 -6.9671863543091706e-05 -1.6098406969933553e-05  3.9564736600650832e-05 -7.4198993074186411e-05 -5.3915806809720740e-06  2.8652976131585375e-05 -6.5058258017213036e-05 -7.1700484032387497e-07  1.7014746248662738e-05 -6.8997841705076138e-05 -7.7258383747570309e-06  1.4400892451107414e-05 -8.1705719887770236e-05 -1.6671801286080609e-07  8.3173402933920961e-06 -1.1263433819318642e-04 -2.8254369371463734e-05  5.8628128478935981e-05 -9.6467450997017858e-05 -2.6564416706658737e-05  1.6977572546832797e-05 -8.2575218866702636e-05 -2.5642164118171519e-05  -4.1019748164343800e-05 -7.0661363387541757e-05 2.5324873682583762e-05  -2.9772734409133963e-05 -7.4390977993444473e-05 1.7114710671713598e-05  -2.8687713453009312e-05 -6.3541553729155200e-05 2.5019956738721483e-05  -2.4801923988767878e-05 -7.8397130633909751e-05 2.4884177268746629e-05  3.3031610157041865e-05 -7.5773745902595909e-05 2.4863166902777520e-05  4.1826374068238071e-05 -7.3479139850138840e-05 1.6104311776931960e-05  3.5233329040117235e-05 -6.0606756420880179e-05 2.5837430657795748e-05  4.7662102381811151e-05 -6.6875449318826773e-05 2.5570362135142095e-05  -6.6345082483378962e-05 -8.8555687665287935e-05 1.7552276808255883e-05  -1.0179414632320962e-04 -4.9371784122508357e-05 1.5993398676175109e-05  -7.0057828146543268e-05 -5.7484043069542359e-05 1.7876886588098736e-05  -6.8144805407820532e-05 -8.7524059373166822e-05 1.0659112884811415e-05  2.3187968188292315e-05 -6.8122352232847350e-05 -2.7146880265704503e-05  6.2627261474630681e-06 -7.1827166027474391e-05 -2.6699553885199234e-05  -1.2237235402577148e-05 -8.0106056807026051e-05 -4.3471727808544424e-06  3.7188560894581280e-05 -7.4824710394217464e-05 6.0946804800438964e-06  3.9273739730016413e-05 -1.0556630018726777e-04 -6.1441237732104052e-07  4.4014641992408591e-05 -7.3127931489050681e-05 -1.4753134091536786e-05  3.4118479079934775e-05 -1.0779086999825357e-04 -1.6623925365043181e-05  -2.9562301623234672e-05 -8.0723111228823955e-05 8.2842955142915810e-06  -1.2827337015372467e-05 -1.1188928192959867e-04 5.6646726317675606e-06  -5.6654904237697763e-05 -9.6003342266856806e-05 1.9178834956576396e-06  -1.4982366830719880e-05 -1.1153420874998315e-04 -4.6873731110138962e-06  2.9107392008094609e-06 -8.4196342678147527e-05 1.1606238755220767e-05  -8.8412689373944631e-06 -7.0313541850612179e-05 6.7327097262102495e-06  3.3602968494740019e-06 -7.7475166205358639e-05 1.7187558489384862e-05  2.7062334894420198e-05 -6.4209721005765137e-05 1.4184092543815354e-05  5.9432525982923946e-05 -9.3463208988838831e-05 2.6196267762557950e-05  5.6998167317180428e-07 -7.0885808502965881e-05 -6.3306036883463836e-07  -4.5974906653241671e-06 -7.0199453203272880e-05 1.5145502209616719e-05  -2.1440379172992112e-05 -6.7275903380709047e-05 1.2171360725419664e-05  -5.5616975032473554e-05 -6.4360556432617417e-05 -2.6441365730273184e-05  -3.4344177001204826e-05 -7.3662658694868751e-05 -1.8207472955530080e-05  -4.3579090601723454e-05 -1.0464931754777506e-04 -2.6796292336264194e-05  -4.0058261184399061e-05 -7.3433504288912738e-05 -2.6596323113810221e-05  -1.3202111369274342e-05 -6.8555146955768650e-05 2.4565788631910745e-05  4.1733981566487136e-05 -5.6183787378605310e-05 1.6997558981334015e-05  4.1624508658119714e-05 -5.7045501244775755e-05 1.0319476125592398e-05  -6.7972912801606198e-05 -5.0256990931016009e-05 1.0609402144581879e-05  -7.4414939382501510e-05 -3.3369650885110443e-05 1.7930343544604896e-05  -5.9708994707043877e-05 -3.8503942260459762e-05 1.5541222961608542e-05  -6.9220494988652339e-05 -8.8235561795191867e-05 -7.0889744362338737e-06  -3.6214934028785240e-05 -7.8952082127541271e-05 -1.1312028466368766e-05  -1.8564328226802820e-05 -1.0881224374485019e-04 1.5739411364795705e-05  3.4833092227758007e-05 -1.0443248371425151e-04 1.3153863604498858e-05  -3.7492677820465398e-05 -6.0677666544728437e-05 -2.1269086733846986e-06  -5.1186464603410107e-05 -6.5101425584277779e-05 2.9653315911122324e-06  -2.0705875940611690e-05 -6.7631353074580373e-05 7.0655378142770345e-07  -4.5157342956902150e-05 -1.0239986810822840e-04 2.6371592181912975e-05  7.9238460190928251e-06 -1.1185408131093115e-04 2.5396980151374318e-05  -3.3624539399023177e-05 -6.3080984560732692e-05 -1.4618086618404165e-05  -2.6316178332844521e-05 -6.6777121194950181e-05 -2.6852107936136662e-05  -4.0585358695379617e-05 -5.9353590840787339e-05 -2.6462983158538812e-05  -1.0164027407995432e-05 -7.1261304963558795e-05 -2.6707977805546035e-05  -4.9652536554009446e-05 -5.0762390788027527e-05 7.9193321956560962e-06  3.0549817855824861e-05 -6.4454704996113154e-05 -1.3163042656075809e-05  -2.4961430443939515e-05 -6.6991510907805289e-05 -7.8132089833255055e-06  2.0187842706698766e-05 -6.6776661718554340e-05 2.4351760515718477e-05  1.1918884353706673e-05 -6.9241970450221183e-05 1.0740364695301213e-05  -4.3356550425469082e-05 -5.5116471442484313e-05 2.4526381134415117e-05  7.9678854956595217e-05 -7.6487635640919377e-05 1.5790474267194388e-05  -7.1283635823192628e-05 -4.3439696207379550e-05 2.5033040373561522e-05  -5.4798662548193053e-05 -4.4681279122996446e-05 2.5633363743426096e-05  -5.3246276313346855e-05 -4.8059093310164847e-05 -2.0911251494701006e-07  3.3837312776593520e-05 -1.0563445203386002e-04 -1.0217420480215979e-05  3.4723460453314434e-06 -6.9389611260235702e-05 2.4845375491219921e-05  1.1967389951290880e-05 -6.9138052040655708e-05 1.6362272185709698e-05  -1.9446774679063221e-05 -1.1020527983717458e-04 -1.5249403626017469e-05  -2.5367196499629230e-06 -8.1749594471184863e-05 2.5345425736246416e-05  -3.6864708491564520e-05 -6.0328097273177214e-05 1.4840714848740688e-05  -3.3045259625183832e-05 -6.2726018602224398e-05 6.2972670064793095e-06  -8.9239442824184294e-05 -6.7507716335355158e-05 2.7012837827366605e-05  -1.1230629930874988e-04 -2.1165599946260472e-05 2.5893229286068929e-05  1.4957612134343196e-05 -8.0504754825555983e-05 2.5284836977048223e-05  4.8739848482358858e-05 -5.1563370412362357e-05 2.4908712897763184e-05  -6.1652453485249052e-05 -3.6611160339259548e-05 6.6342757222896725e-06  7.9537059380203128e-05 -7.6444264891016215e-05 -4.3268306606629393e-06  8.0847107612525194e-05 -7.6662732584338670e-05 -1.4854826723613752e-05  -2.3429055485773323e-05 -8.0658703802887198e-05 -2.6429691657552965e-05  -4.9038658458347519e-05 -4.9885346131828516e-05 1.5650422374852664e-05  -6.5775485786562248e-05 -5.5178889384067592e-05 -9.9409096381943598e-06  -4.7639065003035753e-05 -5.3484301445020921e-05 -8.2500868470013318e-06  -4.7507565677549566e-05 -5.3813665163955865e-05 -1.6395778711964883e-05  3.4770977014612396e-05 -7.6230555309895960e-05 -2.6219205178891185e-05  3.7311339951752196e-05 -6.0122123052594391e-05 -2.6753060121238113e-05  -5.0212848103312111e-07 -8.4438248037636390e-05 -2.6230056050013499e-05  8.1814965401786615e-05 -7.5953609294436135e-05 5.2590790173617642e-06  -6.7593610777204666e-05 -8.9983956114346071e-05 -1.7029284258500672e-05  -9.9975020377140680e-05 -5.5188823998414234e-05 1.6087316753505668e-06  -8.8756019348952564e-05 -6.9649748096924316e-05 -2.6386628474902069e-05  -6.0867806700055706e-05 -5.7146742352006735e-05 2.5204027521134627e-05  -5.3707045844243257e-05 -4.8038975036801071e-05 -2.5795652384692318e-05  4.9548365891205152e-05 -6.6375526862143608e-05 -2.6453334974809778e-05  </DataArray> 
</PointData> 
</Piece>
</UnstructuredGrid>
</VTKFile>