<?xml version="1.0"?>
<VTKFile type="UnstructuredGrid"  version="0.1"  >
<UnstructuredGrid>
<Piece  NumberOfPoints="513" NumberOfCells="2037">
<Points>
<DataArray  type="Float64"  NumberOfComponents="3"  format="ascii">-0.9260063084614851 0.3756723916478909 2.088494690531251  -1.215387188971444 0.5119852676208858 2.211144537160126  -1.169199657083873 0.3285258581972214 1.959879554366241  -1.323900903417153 0.1968728161777803 2.29048176525354  -1.65102550751847 -0.5853418105724925 1.000443999264721  -1.972717401737126 -0.2770048687796395 0.928821562964615  -1.909838062722855 -0.5607198352585883 0.7758128115671631  -1.94654710247373 -0.4397063489256637 1.212904324282488  -0.9656126141925141 0.2451078993645466 0.903476229672846  -1.307273153197141 0.04102778345962579 0.7482857790902816  -0.9842502912171535 -0.1599094768274606 0.8684447600518961  -1.249215610799177 0.2430717103564773 0.9671430603142159  -0.9999937435268486 -6.352303793224264e-05 1.579944513727601  -1.312522004451318 -0.1514771375360489 1.769733720506073  -1.219701320019046 -0.256368583217724 1.513705607402347  -0.9710382679627432 -0.2272219158894408 1.66365709242607  -1.152564308322334 -0.6146102306519087 2.290519749049988  -1.112536592270995 -0.4970888852843044 2.032597829790319  -0.9411061816656194 -0.3258947806828741 2.338450351231977  -0.8361908746458244 -0.5467373724377904 2.130302338675527  -1.130289610535039 -0.7323124340292029 1.277776118524968  -1.266766286138908 -1.008906445544718 1.063624260447531  -1.483646847244597 -0.7451701819327663 1.284945495695263  -1.362258947965439 -0.6597119788061743 0.963947159543588  -1.153565928215088 0.3961550794954058 2.777688352315749  -1.28765668591996 0.113830202492347 2.707337524720061  -1.168488944387141 0.3617291064365978 2.501046815526986  -0.9850810122422609 0.1514750247149763 2.727173728961688  -1.009379236606645 -0.7732337977636983 0.965491390307064  -1.296220627873219 -0.6472349211577371 0.7217461812114134  -1.188984052332926 -0.4254961644111375 0.7718489876806194  -1.235655536796483 0.3433994754859898 0.6946751998039692  -1.305299513639754 -0.2617408950762999 0.3238781852583938  -1.54815647609857 -0.2653476145938544 0.22261107454997  -1.583912438798967 -0.464312102321836 0.39108120278089  -1.473428042386052 -0.2606991630884039 0.6547314839504961  -1.252208718574231 -1.255676782608476 2.240162865292683  -1.567305757386662 -1.227670183009062 2.416022748715736  -1.427887152445046 -1.397552244662979 2.055194890811689  -1.427887152445048 -1.397552244662976 2.512760650241201  -1.664910923673525 0.432614917869194 2.357777735902025  -1.922341592596459 0.5195012212131185 2.489821363404443  -1.928305028540357 0.4998424074987824 2.165087777197687  -1.970560222047508 0.2989070817250175 2.341044639907967  -1.98675399845975 0.1344889105926879 0.5313495212184398  -1.661653823734134 0.03079869070401731 0.7297828569381692  -1.62407752486137 -0.06307331489345444 0.372839708262396  -1.760011020697118 0.3037424123478172 0.5106187273310807  -1.884217526686909 -0.6451794236453519 2.491823020778211  -1.9459936380826 -0.4415308765076 2.345924563952366  -1.957396875122214 -0.4039394418361448 2.563423834151393  -1.699000340662239 -0.4428050437445591 2.467721064216187  -1.121818190098454 0.6061936883416127 0.8266300311499966  -1.433939384560817 -0.4238274762576875 0.8699118466181608  -1.573784807892008 -0.5805046025967722 0.7101690556525573  -0.9411061816656194 -0.3258947806828742 0.3551781620400321  -0.9941832724223048 -0.05905822619464331 0.2807537968460868  -0.9941832724223048 -0.0590582261946434 0.4972761553387438  -1.402347010012292 0.4920558751288001 2.761988400613965  -0.8082330127850601 -1.503186699293603 0.2357649048814419  -1.017455922484892 -1.418005519279919 0.3938334665567997  -1.029412160275252 -1.706623914158315 0  -1.127801783749323 -1.649265634533138 0.2920578331429886  -0.9908701925345239 -1.263496194925009 1.056104050844839  -1.062257142436844 -1.011050045281292 0.7321183252305898  -1.004926215744018 -0.9717965485057757 1.169910315842186  -1.335337400902062 -0.7860545710461491 2.550460757321372  -1.593615622573879 -0.792032947646325 2.520412296593137  -1.588912883050472 -0.7889275903798316 2.791355739196442  -1.564334158058351 -0.5889188034608139 2.683879869136377  -1.581290903713539 -0.2970897441185306 1.048369966819071  -1.743120307703398 -0.06304948615626116 0.9919043794899579  -1.680230049749189 -0.1711975444313317 1.357373068767943  -1.462974575698371 -0.09060976069308574 2.759414478044269  -1.303404570440123 -0.06724211453096629 2.461721022665841  -1.249679095813348 -0.2601979459792874 2.727966810990917  -1.441186560264091 -0.3492890134375373 2.492791099351328  -1.194979136873971 0.9101429222428052 1.043890337845854  -1.280339600673329 0.8142753281091926 0.8082459380031127  -1.501397742985334 0.8632673176568763 0.9405261858769782  -1.219162746384527 0.6233008326600873 1.084043049722833  -1.382319199378073 -0.5907418376753506 2.013010320636827  -1.06657240619417 -0.7663622070196903 1.947062030830022  -1.223001019254242 0.1550573634103403 1.409304678032743  -1.513981671922467 0.06346738925087642 1.553369403795612  -1.334551029363847 -0.1015244881255466 1.294613982702496  -1.262475507549776 0.3869775720524342 1.219340501184618  -1.611647052306065 0.3554398012864973 1.316835097312015  -1.4817894223598 0.3490363229274818 1.100724046177009  -1.464059630891175 0.1387576624741818 1.307060864680669  -1.67463157484072 -0.1501708347366142 2.36216375168643  -1.632864458372463 -0.4191082906465651 2.101189180998846  -1.995082405095516 0.04992917896255156 2.443660382031406  -1.66755928569038 0.1812450342360503 2.190262165414482  -1.766156086691165 0.2297663557929015 2.49393410343154  -1.757364381994009 -0.05151822786741123 2.143385105486461  -0.9332399319050438 -0.8329507000756384 1.430972631249643  -0.7895298084505613 -0.6066740318757129 1.5286319452466  -1.038612370612227 -0.713293946212182 1.647778346967149  -0.8922614140538092 -0.9598247585280195 1.721329349967923  -1.82404655335021 -0.8097298537821912 0.7258268606511862  -1.837177028272594 -0.7851644630181105 1.125614227511518  -0.6229198099826866 -0.7761972429176593 0  -0.7011924285577662 -1.116007026656368 0  -0.7973461611764788 -1.031989847821273 0.3007238726898137  -0.9041024360369281 -0.8914374799329257 0  -1.490212894739336 0.1024283258350408 1.048555704281198  -1.269047057448465 -0.1238640230096709 0.9996125339283918  -0.9941832724223048 -0.05905822619464333 2.677331707366085  -1.966488155710956 0.34025146506968 0.3195083575913187  -1.718039026733599 0.4021564729060674 0.240102687862987  -1.901028395336979 0.5897614165975682 0.2715355899294156  -1.909838062722883 0.5607198352585618 0.4685414821717258  -1.215914184486183 0.0722052841382636 1.152181808573573  -1.550860895813692 0.7743665571272234 0.6777793944735439  -1.73350680003723 0.9791178182666499 0.7418357746042745  -1.829625738534411 0.7992919324575475 0.5658120083177366  -1.871938515486758 0.6856578988148563 0.9111158509006674  -1.465055270517109 1.000012001635756 1.147846198214053  -1.548706672354905 0.6786497599334139 1.233793657262481  -1.476425729496703 0.2066045208918142 3  -1.630123886592809 0.375451745420793 2.685459653224462  -1.773980371139813 0.2218805325960953 2.782707204985573  -1.693466300542116 0.2279811513195173 3  -1.366474266489984 -1.047771008361796 3  -1.221175608913794 -1.041455249973299 2.756322037536186  -1.221038484335588 -1.19820485525533 3  -1.500136972962329 -1.30951558363957 3  -0.5620455767304046 -0.8261554350557641 0.917008705134106  -0.8110304134403988 -0.9556128599400331 0.8778429181909299  -0.7431286293629809 -0.6632140321853688 1.14105304140432  -0.7098319736689174 -0.7037861245388741 0.7769317489877905  -1.391147011987356 1.06525700924507 2.756869952670498  -1.260017126109219 1.174917670010183 2.427905230488051  -1.507328219677138 1.300753024164202 2.713336764402187  -1.165230715369792 1.205390575913933 2.689956132617993  -1.721773787789576 -0.003935568816488877 2.78688486891622  -1.995734852768018 0.043304766574551 2.718583275510576  -1.983929507246338 0.1631664511407618 3  -1.803507605944916 -0.0630922066319478 2.558029022606106  -1.974816562346712 0.2556917334395575 2.654325372778719  -1.089812399683726 -1.021243261100018 0  -0.8987805921620252 -1.319845098533642 0  -1.116895818781933 -1.161934819761162 0.370270074731517  -1.546861241560049 0.5688588129640406 0.3522510134588102  -1.605968895026453 -0.7390282026009384 0.4851812485290803  -1.840981367244331 -0.7780470454081483 0.3436477599646534  -1.73350680003722 -0.9791178182666684 0.2877286554780817  -1.73350680003722 -0.9791178182666687 0.5388107162882877  -0.9270005828501531 0.3723947082499905 2.361375773110511  -0.9850810122422609 0.1514750247149763 2.510697486762824  -1.465174940095696 -0.9338008255969225 2.344198929805061  -1.550999611374352 -0.6339550912555464 2.31831935342786  -1.365668187016484 0.9299040139860805 1.367410651434479  -1.364828507948321 0.5898346271429308 1.50358242883754  -1.561976378311393 0.7892151608032022 1.509996634791825  -1.39691577300538 0.8911861814548782 1.730336489180808  -1.447303353351953 0.3517831149908241 1.964888327648917  -1.618075865260566 0.4074476862232218 1.663634259704036  -1.681292409562479 0.1034354428021357 1.853486641591569  -1.722294987833647 0.4396160314857099 1.971911705062555  -1.600076204029122 -0.7509059370788016 2.093815082986296  -1.891214363412786 -0.622113944100068 2.230867755903939  -1.777784591742112 -0.8962798964221964 2.211179134608378  -1.275597160088317 -1.167869433059521 0.6132159840926475  -1.199121442982144 -0.9273700183312629 0.5130642412362458  -1.51625229223465 -0.8815743425805951 1.041474482512132  -0.5584414848654666 -0.8291132368095167 0.6434751802119618  -1.439210747037442 0.8722278955756767 0.2966160678140998  -1.679741028279417 1.079706502283821 0  -1.787272571795044 0.8785291342494774 0  -1.73350680003723 0.979117818266649 0.3897882420311979  -0.9408568860267614 -0.326716598267604 1.46112762190211  -1.144618219240531 -0.5094773
[...]
<PointData  Vectors="f_18"> 
<DataArray  type="Float64"  Name="f_18"  NumberOfComponents="3" format="ascii">-5.7393537193049002e-02 2.3871408513762397e-02 -1.0937082506790199e-02  -4.7884530099976702e-02 2.0233943153101338e-02 -1.0191175246964857e-02  -5.3363430766896189e-02 1.5380638126496879e-02 -7.4956707276211624e-03  -5.0517679783020061e-02 8.0649789851867573e-03 -1.1202354100837475e-02  -4.2326271776181507e-02 -1.4313437340208573e-02 5.8737858189264816e-03  -4.1328784651988838e-02 -5.0420441748618818e-03 5.7190237139167644e-03  -3.9446803307776418e-02 -1.1114244770271038e-02 7.1996950669078047e-03  -4.1309929495972897e-02 -8.8281532691472635e-03 3.0597654945191733e-03  -6.0715450799103128e-02 1.5364427791134857e-02 1.1035418207540367e-02  -5.2210531232763570e-02 2.1478872899147530e-03 1.1011484521693109e-02  -6.1274568966170978e-02 -8.6972699004332025e-03 1.2090878667053256e-02  -5.2747266718212595e-02 1.0623123103551527e-02 8.4324106624279593e-03  -6.3045078558912948e-02 5.3829419693641219e-05 -1.3419659565317476e-03  -5.3067019554789770e-02 -5.6824540748644575e-03 -3.9092097067510928e-03  -5.3946792042506804e-02 -1.0861044900290943e-02 -5.6579738481368201e-05  -6.1717255371393609e-02 -1.3429720565649422e-02 -3.2405928306603786e-03  -4.5844964864101355e-02 -2.3810268987087480e-02 -1.1604562289567476e-02  -5.0501193196263262e-02 -2.2335982464043988e-02 -8.2527977837621880e-03  -5.7650518175373713e-02 -1.8765962050834438e-02 -1.5192248197093099e-02  -5.1833444542211796e-02 -3.3047707163508716e-02 -1.1859351265680039e-02  -4.4063496029167065e-02 -2.8173360687925742e-02 3.4691965557465516e-03  -3.6687653612397980e-02 -2.8494863270069649e-02 5.3118900509135612e-03  -4.1652017302136538e-02 -2.0119730074729645e-02 2.6768347870978755e-03  -4.3850905942650613e-02 -2.0276236414519467e-02 7.1340241177983658e-03  -4.7352834595594716e-02 1.6627405381578024e-02 -1.9367433636545875e-02  -4.8882538971235304e-02 4.5748049049761331e-03 -1.7265965802123331e-02  -5.0517174328382937e-02 1.5963700749961760e-02 -1.5449583111559612e-02  -5.6665766337576036e-02 8.8331897980079323e-03 -2.3006313095406045e-02  -4.2693660869274876e-02 -3.2236590956053558e-02 8.2244606217408266e-03  -4.3977492574875765e-02 -2.1101519617900619e-02 1.0416883397685253e-02  -5.0277387547069168e-02 -1.7757477029454787e-02 1.1222375787251247e-02  -5.0565224523036960e-02 1.4296186578482922e-02 1.2145998610631533e-02  -4.7780976096784535e-02 -8.7985259548475810e-03 1.6720634905917978e-02  -4.2458275272669460e-02 -6.7328507771964117e-03 1.5111711756562759e-02  -4.1527617690688627e-02 -1.1663130341673492e-02 1.2692708288761316e-02  -4.7318102117741345e-02 -7.8061006390422478e-03 1.1046622129507794e-02  -3.0675913175911531e-02 -2.9867894033096400e-02 -7.9153507300556581e-03  -3.1256010503832449e-02 -2.3948678778295505e-02 -8.2303299719645919e-03  -2.9744463642135639e-02 -2.8275535204514739e-02 -5.0190779741120387e-03  -2.7948815772812094e-02 -2.6591702812526929e-02 -8.9272661925078722e-03  -4.2591748263943713e-02 1.1378653097426904e-02 -9.3122155525846330e-03  -3.8401803970639678e-02 1.0676859850845381e-02 -8.5901375322501774e-03  -4.0004036976423497e-02 1.0447950184748271e-02 -5.9745557333545293e-03  -3.9913115313660215e-02 6.2590429984728871e-03 -7.3184398746712256e-03  -3.9781721969113087e-02 3.1397138868736896e-03 9.1889672307253444e-03  -4.5266945262093419e-02 1.3750489292195204e-03 9.1412386900029882e-03  -4.3676159861719535e-02 -1.1514371454590729e-03 1.3272255240924702e-02  -4.1493401805505502e-02 7.6304716525254094e-03 1.0473396191249162e-02  -3.7139922530841064e-02 -1.2142810953466017e-02 -8.6063205585438125e-03  -3.9258928647808694e-02 -8.4671957076442456e-03 -7.3546935581758136e-03  -3.7769456106162447e-02 -7.4075675674683209e-03 -9.0504654342933762e-03  -4.0750450654327974e-02 -1.0160490480727780e-02 -9.8677700226793494e-03  -4.7255762839457094e-02 2.5459344007841563e-02 1.0445948984547919e-02  -4.6767903389812043e-02 -1.3319475732385002e-02 8.3685062758586861e-03  -4.2321913409713793e-02 -1.4822745124433536e-02 9.3250005304277225e-03  -5.5209258359849724e-02 -1.8106672237504538e-02 2.1704275300931875e-02  -5.7780827512879031e-02 -3.0477189249919680e-03 2.2696752546561474e-02  -6.0086527374519326e-02 -2.8269553652977499e-03 1.8726855682928683e-02  -4.1752508452098894e-02 1.5113453582720454e-02 -1.5313302685619616e-02  -1.9673458236955293e-02 -3.5073292246586604e-02 1.3359374978168010e-02  -2.4421065971491299e-02 -3.3134915465146339e-02 1.1787617471745001e-02  -1.8681830693204539e-02 -2.9154199023856443e-02 1.3230274234293880e-02  -2.1743128035273254e-02 -3.0365414310435403e-02 1.0714283152920707e-02  -2.9427538577864062e-02 -3.6110200198376560e-02 5.5744834063842664e-03  -3.5116585756626503e-02 -3.2829963259181784e-02 1.0218495525079464e-02  -3.6945366436314075e-02 -3.5104311016684341e-02 4.8345451688294261e-03  -3.8670816964431726e-02 -2.2360199065478946e-02 -1.2534050646239225e-02  -3.7272149654154194e-02 -1.7962928234507739e-02 -1.0322315251933195e-02  -3.5191155941121599e-02 -1.6951263837948528e-02 -1.2903737357238813e-02  -3.9095071299509843e-02 -1.4242072688383543e-02 -1.2792274467666695e-02  -4.6358744454910290e-02 -8.0234543461528730e-03 5.8401940507976568e-03  -4.4597008891174204e-02 -1.1617946163598825e-03 5.9242585902350518e-03  -4.6077801075255317e-02 -4.3402377170833261e-03 2.1485515808721905e-03  -4.4608922249431956e-02 -2.0862976689220688e-03 -1.5316961162934272e-02  -5.0300666947707712e-02 -2.2235576699553773e-03 -1.3834860997186279e-02  -4.7744042475407519e-02 -9.5160311657345696e-03 -1.7737195553105163e-02  -4.5230623370058252e-02 -1.0530191229697330e-02 -1.2469776357928319e-02  -3.9003806987645370e-02 2.9714032702455651e-02 6.3391831547411114e-03  -4.0674434177876091e-02 2.5823373446559307e-02 8.9671865978075155e-03  -3.8935060101841862e-02 2.2330032112099368e-02 6.3013612868818127e-03  -4.5843908877414866e-02 2.3523845520167491e-02 6.4052853460505772e-03  -4.4902638804600679e-02 -1.8396085140666488e-02 -6.6742772935117923e-03  -4.3112761691504596e-02 -3.0277045639370271e-02 -6.7615759982697721e-03  -5.5002367773541679e-02 7.3443773240443938e-03 1.8671034365574349e-03  -4.9148562883782297e-02 2.6452441158620181e-03 -3.9938866306839894e-04  -5.2729223317976727e-02 -3.7037786398696651e-03 3.1660947042903955e-03  -5.1055359513102860e-02 1.5965715565262134e-02 4.5413019774041526e-03  -4.5775718858785876e-02 1.0541838697993938e-02 2.2278468620727026e-03  -4.7445540393310524e-02 1.1559974130032400e-02 4.9701271745075373e-03  -4.9538897020960621e-02 5.2579790292060459e-03 2.5670691614085228e-03  -4.3989556421660178e-02 -3.5998943891556363e-03 -9.1947040166024206e-03  -4.3991362497897417e-02 -1.0679865028899860e-02 -6.5153929516799901e-03  -4.0052143663689546e-02 1.3071122308888530e-03 -8.1325279976843592e-03  -4.5189521579128124e-02 5.3660511509436874e-03 -7.4355223681370711e-03  -4.1595835227178711e-02 5.6060142578626872e-03 -1.0199157852462558e-02  -4.4062190663688265e-02 -8.6007337620169842e-04 -6.6155917999201662e-03  -4.0799606083594502e-02 -3.6013248917596753e-02 8.5859445483052715e-04  -5.0466421393478109e-02 -3.7739272335927880e-02 -1.6114693242735056e-04  -4.5078338149698152e-02 -3.0360393144607353e-02 -2.3907498190664975e-03  -3.6431816534218543e-02 -3.7931459811425074e-02 -3.2092251444710085e-03  -3.7267292499894751e-02 -1.5701669961430870e-02 7.3140301322585140e-03  -3.8782042167972035e-02 -1.6092441990550304e-02 3.9560437080640755e-03  -3.3450987219349221e-02 -4.0485160437722989e-02 2.7769683359189983e-02  -2.4132917483135629e-02 -3.6627822254885374e-02 2.0641909009398218e-02  -3.0330879826126277e-02 -3.7761303794559303e-02 1.7249126136887300e-02  -3.3105503164597434e-02 -3.1346988110305098e-02 2.1567086473384123e-02  -4.9226490194960386e-02 3.7788169137967726e-03 6.0698502468122893e-03  -5.2869866059755632e-02 -5.1348539648437535e-03 7.7213148040036128e-03  -5.7926389528092433e-02 -2.7100119572055822e-03 -2.1801093511362283e-02  -3.7871670573838376e-02 6.8248711155921762e-03 1.0747787614204422e-02  -3.9356293131673353e-02 9.3707315127149263e-03 1.3139404155390949e-02  -3.6225264577547815e-02 1.1623283864129088e-02 1.1098869438054175e-02  -3.8044333297153947e-02 1.1391705796783454e-02 9.5064118605383916e-03  -5.5748286219853650e-02 3.9183460348697127e-03 5.5997341943665414e-03  -3.9416314187799402e-02 1.9553204332331982e-02 9.3108880070246151e-03  -3.6016758224450100e-02 2.0369568834961719e-02 7.1342742885304846e-03  -3.6695339782182403e-02 1.6008209047533591e-02 8.6242588864424066e-03  -3.9201782079043429e-02 1.4466283662982306e-02 5.6132702013917592e-03  -3.7068678050193392e-02 2.5190087451897714e-02 4.0832492868887391e-03  -4.2433625007595517e-02 1.8785844994869336e-02 3.2355743919580053e-03  -4.0664930894056123e-02 6.1162045663317359e-03 -1.7720154978040439e-02  -4.0925909268985768e-02 9.5839748233094418e-03 -1.2898365249615349e-02  -3.9048439864986288e-02 5.3336991651002450e-03 -1.2616660688593817e-02  -3.7656527928652109e-02 5.6074173997516996e-03 -1.5352295726837694e-02  -3.0017048929475466e-02 -2.2506126081922151e-02 -1.5295912710801187e-02  -3.2142236939955021e-02 -2.6638904789885339e-02 -1.4164838954326124e-02  -2.7347265143271252e-02 -2.6070724246622441e-02 -1.5522553331678632e-02  -2.6571221125939702e-02 -2.2567064561364383e-02 -1.3153983579907781e-02  -3.4590831274138686e-02 -5.1165302292438125e-02 1.1057247254160305e-02  -3.5137698687303952e-02 -4.0250605135654656e-02 9.8132604463003481e-03  -4.6850067179475575e-02 -4.1179212814796459e-02 7.0553916494456208e-03  -4.3748148662374073e-02 -4.1944829836403290e-02 1.3512172080630066e-02  -3.2135161970517863e-02 2.4518296251471047e-02 -1.2668920479422616e-02  -3.1939762735410333e-02 2.9534070902885564e-02 -1.0054754894549375e-02  -2.8947878527719562e-02 2.4820277044919313e-02 -1.0579964451682376e-02  -2.9398280413317823e-02 3.0203462602613865e-02 -1.2915163273075070e-02  -4.0233617195163600e-02 4.8708152136094188e-04 -1.3076372287112781e-02  -3.7512412258100605e-02 1.1545767273875034e-03 -1.0277424453362634e-02  -3.5077394886537910e-02 3.3200767378764018e-03 -1.2859585988560804e-02  -4.1109669403989337e-02 -1.0651371261168440e-03 -1.0428800783608807e-02  -3.7794162119127908e-02 5.1132204269577364e-03 -1.0060011563155042e-02  -3.0404690269337932e-02 -2.7394363735138247e-02 1.8015777380650261e-02  -2.2774609954944538e-02 -3.2002895578066237e-02 1.6846635120695806e-02  -3.0423221396114686e-02 -3.0379693968880007e-02 1.3040994737390342e-02  -4.0313042355722736e-02 1.4930098558708162e-02 1.2778318416640864e-02  -3.8382557786128979e-02 -1.7006622751075968e-02 1.0799667628073986e-02  -3.5740842128330709e-02 -1.4362573451651784e-02 1.0509897240068641e-02  -3.2990976549127839e-02 -1.7806001671952412e-02 1.1090660035855019e-02  -3.4663149211677367e-02 -1.8899776355377759e-02 9.0097267723641510e-03  -5.6006007031298898e-02 2.3589826500764733e-02 -1.5840562712897677e-02  -5.8843344055864957e-02 8.8244100418011038e-03 -1.8865516755282533e-02  -3.6565047693938799e-02 -2.2528912105859195e-02 -8.9636399007341338e-03  -4.1441141316131393e-02 -1.6469357813764206e-02 -8.9351507425793168e-03  -3.9054712207382949e-02 2.6568261684202076e-02 1.7144125175107352e-03  -4.5901940881954116e-02 1.9782652915993838e-02 3.3555994292130476e-04  -4.0825073883338010e-02 2.0632628441418707e-02 -7.7028552326198068e-06  -3.9493940181609462e-02 2.5679250541603929e-02 -2.6471753589322506e-03  -4.7382360504184762e-02 1.2044615828379495e-02 -5.9263377617969643e-03  -4.5180539461509482e-02 1.1676417235998226e-02 -1.6813102280320200e-03  -4.5863859242828556e-02 3.2304311508750258e-03 -3.9569948417722441e-03  -4.2783694466154230e-02 1.1069941025631353e-02 -4.9979355496740513e-03  -4.0083595704306398e-02 -1.8059806752499172e-02 -6.2046898316295484e-03  -3.8785268394110020e-02 -1.2278864644646521e-02 -6.3619211206987344e-03  -3.6942966034504865e-02 -1.8054968015329791e-02 -6.4710899968294057e-03  -3.2258593485204975e-02 -2.8234145714378541e-02 9.8710232959786041e-03  -3.6818426200318874e-02 -2.7090516662615097e-02 1.2437338328478738e-02  -3.8865864540979365e-02 -2.1654122662752722e-02 5.4290377394848321e-03  -3.4151982167779135e-02 -4.9539887934649841e-02 1.6134981168881405e-02  -3.5898503399358163e-02 2.1707640965754723e-02 1.3264396963820969e-02  -3.0341152529659118e-02 1.9121005963426120e-02 1.3391849864132867e-02  -3.1876068821437169e-02 1.5585391832265266e-02 1.3394688803784341e-02  -3.3835463526722724e-02 1.9065270424619758e-02 1.0244812709750280e-02  -5.9673084026206830e-02 -2.0276061543659098e-02 4.9567208161001785e-04  -4.9961418765453611e-02 -2.1658896814455653e-02 9.6130807790947165e-04  -4.9537974137913700e-02 -1.9297754324616553e-02 -2.9804174808414075e-03  -5.1214479215541946e-02 -1.1725574300854209e-02 -1.0409805496804021e-02  -4.9142443450067491e-02 -1.6513349078524968e-02 -1.5053272357282507e-02  -3.7471337438916265e-02 -2.4100702088251720e-02 8.9362991408851386e-03  -4.3815120957251506e-02 -2.2312607094730629e-03 -2.0246372101420943e-02  -3.8543908977828618e-02 -1.2682175928662038e-02 -1.7520256775652592e-02  -4.2682366462187163e-02 -1.4222678970120056e-02 -2.1154379142230447e-02  -3.0237252066978401e-02 -2.5298633708615050e-02 1.3036164842910676e-02  -2.8176020570486997e-02 -2.5410323569485013e-02 1.0352527692572487e-02  -2.4868624228575966e-02 -2.4276390412920221e-02 1.3130170764622293e-02  -2.5011817843293888e-02 -2.7425599097898396e-02 1.1064411909240976e-02  -4.6806104852733288e-02 3.3301736266826830e-02 -2.2528161812449248e-02  -3.9278794265892328e-02 3.5729224930937449e-02 -2.7458162881524379e-02  -3.7224175406694759e-02 2.6720760286882451e-02 -2.1299781900151436e-02  -4.6645063005974319e-02 2.5451634377274913e-02 -2.7411700498533743e-02  -3.0318592297557543e-02 2.8121879938971795e-02 -5.2875856660454168e-03  -3.2109190937593256e-02 3.3599887710475410e-02 -8.0394569924452809e-03  -3.6091700505447556e-02 2.5829961738163942e-02 -5.4825536036068167e-03  -4.7751799747322472e-02 -1.8568030736560662e-02 1.4821440653391776e-02  -3.5194390545670362e-02 2.3744300936133573e-02 2.9508621286777268e-04  -3.4781971295433929e-02 2.3069411621098570e-02 -3.4394461492178964e-03  -3.1864235206917474e-02 2.8159078809002407e-02 -2.0428710612478908e-03  -4.6279259197822102e-02 1.3004860613556999e-02 -8.9665002828969494e-03  -4.7200609343393915e-02 2.4419703130874177e-02 1.5978277217635103e-02  -5.6440908908241848e-02 2.2668772495039811e-02 1.5859481250179289e-02  -2.7074239052919277e-02 -3.3550737271985875e-02 9.1965555143294544e-03  -4.1033849705565784e-02 2.3345948225289039e-02 1.2169644381722989e-02  -4.6495726955475367e-02 1.4891285021743705e-02 1.6897342899641909e-02  -4.0219413771342319e-02 2.0751646508747352e-02 1.6574232115450175e-02  -4.4634168182197398e-02 1.5895842396639940e-02 1.1825760762311519e-02  -4.9551222030120190e-02 1.2048206375235820e-02 5.2090068679903987e-04  -3.3140967876869251e-02 -2.1383194390225728e-02 -1.2777086674694885e-02  -2.9857511124210059e-02 -2.2563427878790045e-02 -1.0285881980313216e-02  -2.8912258749104591e-02 -1.9313786005297540e-02 -1.2847805013276217e-02  -3.2134564702505912e-02 -1.8932474393389350e-02 -1.0546266577008075e-02  -5.5127819655980841e-02 -2.8061247565739321e-02 -5.7205243803892698e-03  -4.6925676622397779e-02 2.6095167927743024e-02 2.7852839213130580e-02  -4.5397942017201647e-02 2.1523430031385033e-02 2.0174274014549586e-02  -5.1337856641793501e-02 1.4604766512644056e-02 2.7523865773933016e-02  -5.4493611147712499e-02 2.1815243298700139e-02 2.1325875701733863e-02  -3.3382717719104324e-02 -2.3989723622653242e-02 -4.0405142707462295e-03  -3.6270294657618961e-02 -2.0427850632202062e-02 -3.8579875869003129e-03  -3.3214237583410681e-02 -2.3341965975235086e-02 -6.1126103984170347e-03  -3.8069549907610314e-02 -2.4600535327776226e-02 -6.1704645731902623e-03  -4.5920417800886779e-02 -9.3852555419072798e-03 -2.7133316367061594e-03  -4.2560824166639505e-02 -1.4172411471527696e-02 -4.3353921611637711e-03  -4.8430959352490519e-02 -1.0879923348307926e-02 -5.7576894180241343e-03  -3.8555423641236861e-02 1.8657608178167789e-02 -1.2077673562710951e-03  -4.2472215917171735e-02 1.8014562687401606e-02 -4.0292451036832797e-03  -3.5509671797121493e-02 -1.1414930088786378e-02 -1.5063667718581426e-02  -3.7300171240512797e-02 -7.1903855575973803e-03 -1.5437187575214919e-02  -4.0070998146920528e-02 -1.0752200853905054e-02 1.8040804180964286e-02  -3.5757179973025209e-02 -1.4176491438112985e-02 1.5951533467668859e-02  -4.0216788940662385e-02 -1.6463345935315205e-02 1.5525049975450417e-02  -3.8098411737356307e-02 -1.0501347748181563e-02 1.3595396673178609e-02  -4.2103909960396035e-02 1.7611590123368891e-02 -7.4355906198675676e-03  -4.7398836572098667e-02 -1.3008408707415379e-02 1.4977508362654733e-03  -4.3435465071262454e-02 -1.0669743137606194e-02 1.2103807874316583e-03  -4.2676647568624854e-02 -1.6316817698470869e-02 -1.0004514536836257e-03  -3.3812875497303753e-02 -2.0004300901896404e-02 -8.4649014048923457e-03  -3.4601375216600928e-02 -1.5429712892552641e-02 -9.9010338228250529e-03  -3.9018461542491965e-02 1.8434533270805090e-02 -9.7136490596102746e-03  -3.6739533614366257e-02 1.5376692019806577e-02 -8.0983968584986861e-03  -4.4538178877787681e-02 2.9119358415227647e-03 -1.2505433450591925e-02  -3.5127282889405760e-02 1.4979671746185926e-02 1.0861016950954270e-02  -3.5312796330100114e-02 -2.0928351509649036e-02 5.7218603432161660e-03  -3.6663490746734494e-02 -2.0675365784576839e-02 2.1733295996156548e-03  -3.2327817086207175e-02 1.4867977028662714e-02 -1.2930322267150580e-02  -3.4226884426765691e-02 1.8099058111799005e-02 -9.5614616225301440e-03  -3.7393584615943803e-02 1.8972015193660187e-02 -1.2918091782477213e-02  -3.5312467870354351e-02 1.3822633587005095e-02 -1.0421309690020216e-02  -3.5532526999069440e-02 -2.1120321363463968e-02 1.3370478968724207e-02  -3.8137355475505751e-02 -2.8926790611275434e-02 1.6721522352833491e-02  -4.1263984539217514e-02 -2.0671168755662515e-02 1.2965416084696164e-02  -3.3760054871638454e-02 3.1992737241837731e-02 -3.9032385593556923e-03  -3.9411032883537429e-02 -2.9386973711250206e-03 -1.6408906702037391e-02  -4.0430677060010724e-02 -6.7636411344092319e-03 -1.2684018393728494e-02  -3.4745053829042069e-02 -4.6398258728597690e-03 -1.2962071114451830e-02  -3.1335707754691126e-02 -4.3337159438765080e-02 5.5943125666877858e-03  -4.5444983729505228e-02 -4.3147607949139126e-02 3.2081043614973232e-03  -3.4731018203815404e-02 -5.1933790358063045e-02 2.7064504835074645e-03  -3.5627484627198135e-02 -1.1272937419313516e-02 -1.0531374078786074e-02  -4.9316515451699738e-02 3.5340501392684236e-02 -1.8399398005742789e-02  -3.5820040759631563e-02 3.3831629595898451e-02 -1.6797839266271021e-02  -3.8554167416367122e-02 4.3867597821095949e-02 -2.1732201646678283e-02  -6.1903025573661015e-02 9.8209626560029645e-03 5.5936874370417621e-03  -3.5181595283780898e-02 -6.7388933153523991e-04 -1.2944845155338135e-02  -4.0101219493817945e-02 -1.8353749020722002e-03 8.8150789758362890e-03  -4.2661121576017577e-02 -5.9132466598594202e-03 1.0644254985418483e-02  -4.9641082494195729e-02 -2.5894366795499512e-02 6.8665530794587764e-03  -5.2612035421841348e-02 -3.1542663440824507e-02 1.2860834652501598e-02  -4.4018541286297175e-02 7.3636392507078555e-03 1.5191362320615928e-02  -4.0280092331918725e-02 3.4756639191840847e-03 1.3746491059298463e-02  -4.6214808183586045e-02 8.3435502954058473e-03 1.2725665305755352e-02  -5.5231923351837443e-02 -6.3947038814409392e-03 -7.8013217116595073e-03  -2.8357527442288297e-02 -4.0171264459524667e-02 2.7694100545624799e-03  -3.2040000027488698e-02 -3.1926617941650644e-02 2.9957115740861249e-03  -4.9704480258083314e-02 -3.0083575393978150e-02 -2.0752901935237624e-02  -4.4174543774616590e-02 -2.0888065196759297e-02 -1.7321922280588889e-02  -2.5773553238639575e-02 -2.8648446627230029e-02 9.4102713010079924e-03  -3.9586198546462031e-02 -2.0255308468558031e-03 1.3572739759976840e-02  -3.8174470291463640e-02 -2.1533585260360734e-03 1.0848373059267700e-02  