<?xml version="1.0"?>
<VTKFile type="UnstructuredGrid"  version="0.1"  >
<UnstructuredGrid>
<Piece  NumberOfPoints="112" NumberOfCells="315">
<Points>
<DataArray  type="Float64"  NumberOfComponents="3"  format="ascii">1.962734657692562 0.3783613699999914 1.846559366820982  1.91926574085063 0.5296409455353088 2.339697577168066  1.745217422811993 0.9572087840349652 2.004132439917261  1.399310647126385 0.4861101870387526 1.965101941806065  1.491481428815471 -0.04246098436356954 1.192857642755402  1.240992448073932 -0.7277991002123511 1.504890969845327  1.451841918673485 -0.4160870690660196 0.8124817833527678  1.957241061154269 -0.4044530916512841 1.130662055155801  0.9545290653659886 -0.2816454632327977 0.6694471130563237  1.285895848641168 -0.9157810167207565 0.4484794291144768  1.191933442830757 -0.8743164676129442 0.903733845483468  0.8599034339052349 -0.5023742943566752 3  1.339634282624336 -0.7964456803802702 2.547452680787598  1.468057415404991 -0.2920147759474656 3  1.371659700543215 -0.6077316139648379 3  1.512588052516405 -0.2740719184538642 1.754192008279186  0.9893257645081893 0.1083773317058151 1.785271323260748  0.9756404903825265 -0.2120504217921436 1.431575385960868  0.9545290653659886 -0.2816454632327976 2.01543266745928  1.52494138948322 -1.279291314658712 0.6173649490931152  1.669784403879814 -1.098334036361089 0  1.779059765191092 -0.8938942146969459 0.5606628110678626  0.9827995192597104 0.1746394117049448 2.234570310665951  1.323841507958512 0.4889974985894576 2.488428520580235  0.9025541663092692 0.4225803863622857 3  0.9955658339392071 -0.04502084354218341 3  0.9807852804032303 0.1950903220161286 1.006853791166158  0.8534608015375593 0.5144276117421314 1.633723584493013  1.430264222105482 0.4050405554365119 1.451769552081978  1.52814208573423 0.1613137918978926 0.5102072734156454  1.931628784137607 0.4888854537001639 0.8268342758254814  1.873050508530103 0.6819921490195341 0  1.779059765191089 0.8938942146969522 0.5856441150032816  0.9025541663092692 0.4225803863622857 0  1.442193373962851 0.348801655142766 0  1.28393644087122 0.6551747871608027 0.5464156047922772  1.779059765191092 -0.8938942146969457 1.01238676768993  1.57296018672271 -0.3603518114606046 0.4072833139415248  2 3.980230109725596e-15 0.7844257188377417  2 4.384457398564778e-15 1.495255624790921  1.745217422811993 0.9572087840349652 2.446687387956882  1.436271510541254 0.4166873917597289 3  1.626090978348496 1.156040184014598 3  1.851974305607161 0.7514710787784085 3  0.9802837104947404 1.015623498320987 1.932926185769896  0.7740888140987818 0.6254889379319402 2.335520588439736  1.970110436182802 0.3034738342473148 3  1.455388032758859 -0.113164575367486 2.282703947336242  1.813305601459702 -0.8298247613866921 2.479328878025894  1.805722603473817 -0.8440115527851468 2.078615753071282  1.57048552046347 -1.223795630489437 2.393264369397446  0.7270811635437457 -1.27490888061952 0.5462966671918753  1.22666005428325 -0.7985284946028203 2.081242406925648  0.7166668731150645 -0.6954577754667044 1.218435799795285  1.190141907336153 -1.598104417287789 0.8563357173958452  1.926454636254942 -0.5059423333770237 2.481031809468046  1.894126711453047 -0.6125132192606522 3  1.190141907336153 -1.598104417287789 0.4925706892513765  0.9955658339392071 -0.04502084354218341 0  1.504332653075547 -0.04355687666098044 0  0.7161053535746666 -0.6961419890063658 1.760380501766661  1.450335244017662 0.3993844666440126 0.9479068445177695  1.779059765191089 0.8938942146969523 1.068024436647681  1.50403471895437 0.02019379088048044 3  1.570485520463469 -1.223795630489438 1.885485017006611  1.845985258346861 -0.7686854236083905 1.599474015169418  0.9545290653659886 -0.2816454632327977 2.453707953872622  1.961570560806461 -0.3901806440322534 2.159984251702897  1.014116663803043 1.091301493651112 2.474767832486639  0.708221843788238 -1.311703949689869 1.769051025256928  1.369313844397707 -1.451061808629684 0  1.977226998996422 -0.2312181594265182 0  1.977226998996421 0.2312181594265268 0  1.159725529001306 -0.9432050621005542 0  1.940354222700289 -0.460121537579768 0.5997137623820253  1.293804385592855 -1.513030819977777 1.440009194226544  0.9807852804032303 0.1950903220161286 0.5561421777535174  1.189751496591887 0.7953090613197495 1.205021353519885  1.782883475022974 0.8867405567566307 1.539453426501798  0.8599034339052349 -0.5023742943566752 0  1.355030026421298 -0.6567505145978493 0  0.7166668731150645 -0.6954577754667042 2.339452448918369  1.625007506300554 -1.157360398524891 1.40593107074261  1.987539498282541 -0.1265135970524583 2.441211065177312  1.98434356181004 -0.1589624846057301 3  0.7911968624075247 -1.83395264362245 1.495263286014477  0.6612847082440421 -1.340114905463987 1.108893916461269  1.704010300253422 -1.034301887970529 3  1.873050508530105 -0.6819921490195265 0  0.7623538123515461 -1.256718477748746 2.327019461856683  1.423425623937245 -1.402988632879244 3  1.221813408076458 -1.572112288356507 2.408745073734611  0.7876799948882367 0.6089280362230858 0.7814979844598379  0.5289722636881395 -0.8456865231038897 0  0.6021968632248157 0.7932041258053155 3  0.8720618164091423 -1.226870877129539 0  1.446948942926805 -0.3460927080309257 0  1.932503763244313 0.486001034143304 1.341128711899998  0.5289722636881395 -0.8456865231038897 3  0.9078240641332871 -1.196731419014272 3  1.107235171763327 0.9941180878741851 3  1.313189196928463 1.497122116450428 3  0.7107565992223575 -0.7026594650421584 0.5940424139960392  1.312661692504367 0.7416251454977583 3  1.207951124931578 -0.8857765467844207 3  1.479048369690392 1.335212121076152 2.339377229549288  1.214819861431843 -1.577851743760413 1.933708483088641  1.998889004971134 0.01128012182785944 2.045558868285823  1.05991474732676 -1.690319941703975 3  1.491269988466234 1.320320035509396 1.879478945232963  1.527626125510691 1.276019954343965 1.379747412249333  0.8554989589222524 -1.799582456970345 2.209213972832537  </DataArray>
</Points>
<Cells>
<DataArray  type="UInt32"  Name="connectivity"  format="ascii">0 1 2 3  4 5 6 7  6 8 9 10  11 12 13 14  15 16 17 18  9 19 20 21  22 23 24 25  16 26 27 28  29 30 31 32  33 29 34 35  5 6 7 36  6 29 37 38  4 7 38 39  1 2 3 40  23 24 25 41  23 40 42 43  3 27 44 45  1 23 46 47  12 48 49 50  9 10 19 51  15 47 49 52  6 8 10 53  10 19 51 54  12 48 55 56  12 13 55 56  19 51 57 54  29 37 58 59  5 17 18 60  32 35 61 62  12 47 49 52  23 41 43 46  23 41 46 63  49 52 64 65  11 13 25 66  15 39 65 67  33 29 34 58  23 24 68 45  5 69 53 60  9 51 57 70  29 38 71 72  12 48 49 55  29 31 32 35  9 20 70 73  10 19 21 36  12 49 50 52  6 21 36 74  29 31 34 72  5 10 17 53  6 8 9 37  4 6 8 26  5 69 64 75  33 29 35 76  28 77 62 78  9 73 79 80  5 7 15 65  11 12 66 81  5 36 65 82  46 47 83 84  85 86 54 75  5 10 36 82  2 3 44 78  3 22 27 45  12 48 56 87  4 5 6 17  9 20 21 88  10 19 54 82  12 89 90 91  26 35 92 76  9 93 73 79  26 92 77 61  24 68 94 45  6 7 38 74  37 71 74 88  15 16 18 47  3 23 68 44  8 26 29 76  9 95 70 73  15 47 49 67  4 17 26 28  8 37 58 79  37 58 79 96  29 59 71 72  9 19 51 57  5 69 52 64  5 15 52 65  3 23 44 45  28 61 62 97  3 22 23 47  12 98 89 99  0 3 28 78  29 37 38 71  23 25 41 63  68 100 42 101  12 89 52 81  4 7 15 39  10 51 86 54  9 10 51 102  9 21 37 88  12 14 56 87  4 5 15 17  4 30 38 97  5 69 86 53  4 26 28 61  23 24 41 103  68 100 42 103  29 34 59 72  9 20 80 88  21 37 74 88  12 50 90 91  37 71 88 96  5 10 86 75  29 31 34 35  5 10 86 53  5 69 86 75  29 30 31 72  4 6 29 38  23 41 43 103  5 17 53 60  12 13 14 56  11 12 13 66  5 15 18 52  11 12 14 104  10 86 53 102  1 3 23 40  68 42 101 105  69 52 64 106  4 28 39 97  3 27 44 77  29 35 61 76  6 8 29 37  4 6 26 29  6 7 36 74  1 23 40 43  12 50 87 90  6 8 26 29  23 42 43 103  4 8 17 26  4 38 39 97  0 2 3 78  12 48 50 87  12 90 99 104  15 47 67 107  9 10 19 21  37 38 71 74  15 49 52 65  9 95 93 73  13 55 56 84  11 12 98 81  24 68 100 103  23 68 40 42  4 6 7 38  68 40 42 105  7 15 39 65  9 93 102 79  9 19 20 70  16 18 22 47  50 52 91 106  3 16 22 47  4 15 16 17  3 22 23 45  35 77 61 62  9 19 57 70  9 20 73 80  12 87 90 104  6 21 37 74  23 46 47 63  6 10 21 36  15 49 65 67  26 27 92 77  13 47 63 84  12 52 66 81  26 35 61 76  9 37 79 80  29 30 38 72  29 34 58 59  37 59 71 96  29 37 59 71  8 9 102 79  8 29 37 58  33 29 58 76  8 29 58 76  37 58 59 96  2 3 23 40  29 30 32 35  4 26 29 61  37 79 80 96  47 49 55 67  89 90 108 99  24 68 94 100  8 10 53 102  33 35 92 76  15 39 67 107  0 15 39 107  12 14 87 104  1 23 43 46  23 68 44 45  2 44 109 105  4 29 38 61  4 30 38 61  29 30 38 61  5 6 10 36  5 6 10 17  4 6 8 17  23 68 42 103  15 18 47 52  10 51 86 102  10 86 54 75  10 54 75 82  10 19 36 82  23 24 68 103  1 46 47 83  69 64 75 106  46 47 63 84  23 25 47 63  12 47 49 55  69 85 75 106  69 85 86 75  2 44 78 109  77 62 78 110  5 52 64 65  18 22 47 66  69 85 111 106  8 9 10 102  37 80 88 96  89 111 91 106  69 89 111 106  89 111 91 108  12 89 50 52  49 50 52 64  12 98 89 81  89 90 91 108  12 89 50 91  6 9 21 37  8 9 37 79  9 37 80 88  50 52 64 106  3 16 22 27  4 28 61 97  4 5 7 15  6 37 38 74  5 7 36 65  5 15 17 18  5 64 75 82  35 92 77 61  26 29 61 76  29 30 35 61  30 61 62 97  30 32 61 62  28 77 61 62  26 28 77 61  26 35 92 61  4 30 61 97  0 3 15 107  0 1 3 107  5 64 65 82  5 10 75 82  6 9 10 21  22 23 24 45  18 52 66 81  18 52 60 81  5 18 52 60  5 69 52 60  11 12 98 104  12 98 99 104  4 15 16 28  12 89 90 99  22 23 25 47  3 15 16 47  3 15 47 107  3 27 28 77  28 62 78 97  4 15 28 39  4 16 17 28  26 27 28 77  3 16 27 28  9 51 93 102  9 51 95 93  9 51 95 70  89 50 52 91  89 52 91 106  69 89 52 106  69 89 52 60  89 52 60 81  6 10 17 53  6 8 17 53  13 47 55 84  47 55 83 84  47 55 67 83  47 67 83 107  1 47 83 107  1 3 47 107  1 3 23 47  12 13 47 55  12 13 47 66  12 47 52 66  18 47 52 66  13 25 47 66  13 25 47 63  22 25 47 66  2 3 23 68  2 23 68 40  2 68 40 105  2 68 44 105  2 3 68 44  3 15 16 28  0 3 15 28  0 15 28 39  0 28 39 97  16 17 26 28  30 32 35 61  3 28 77 78  3 44 77 78  44 77 78 110  44 78 109 110  0 28 78 97  </DataArray>
<DataArray  type="UInt32"  Name="offsets"  format="ascii">4 8 12 16 20 24 28 32 36 40 44 48 52 56 60 64 68 72 76 80 84 88 92 96 100 104 108 112 116 120 124 128 132 136 140 144 148 152 156 160 164 168 172 176 180 184 188 192 196 200 204 208 212 216 220 224 228 232 236 240 244 248 252 256 260 264 268 272 276 280 284 288 292 296 300 304 308 312 316 320 324 328 332 336 340 344 348 352 356 360 364 368 372 376 380 384 388 392 396 400 404 408 412 416 420 424 428 432 436 440 444 448 452 456 460 464 468 472 476 480 484 488 492 496 500 504 508 512 516 520 524 528 532 536 540 544 548 552 556 560 564 568 572 576 580 584 588 592 596 600 604 608 612 616 620 624 628 632 636 640 644 648 652 656 660 664 668 672 676 680 684 688 692 696 700 704 708 712 716 720 724 728 732 736 740 744 748 752 756 760 764 768 772 776 780 784 788 792 796 800 804 808 812 816 820 824 828 832 836 840 844 848 852 856 860 864 868 872 876 880 884 888 892 896 900 904 908 912 916 920 924 928 932 936 940 944 948 952 956 960 964 968 972 976 980 984 988 992 996 1000 1004 1008 1012 1016 1020 1024 1028 1032 1036 1040 1044 1048 1052 1056 1060 1064 1068 1072 1076 1080 1084 1088 1092 1096 1100 1104 1108 1112 1116 1120 1124 1128 1132 1136 1140 1144 1148 1152 1156 1160 1164 1168 1172 1176 1180 1184 1188 1192 1196 1200 1204 1208 1212 1216 1220 1224 1228 1232 1236 1240 1244 1248 1252 1256 1260 </DataArray>
<DataArray  type="UInt8"  Name="types"  format="ascii">10 10 10 10 10 10 10 10 10 10 10 10 10 10 10 10 10 10 10 10 10 10 10 10 10 10 10 10 10 10 10 10 10 10 10 10 10 10 10 10 10 10 10 10 10 10 10 10 10 10 10 10 10 10 10 10 10 10 10 10 10 10 10 10 10 10 10 10 10 10 10 10 10 10 10 10 10 10 10 10 10 10 10 10 10 10 10 10 10 10 10 10 10 10 10 10 10 10 10 10 10 10 10 10 10 10 10 10 10 10 10 10 10 10 10 10 10 10 10 10 10 10 10 10 10 10 10 10 10 10 10 10 10 10 10 10 10 10 10 10 10 10 10 10 10 10 10 10 10 10 10 10 10 10 10 10 10 10 10 10 10 10 10 10 10 10 10 10 10 10 10 10 10 10 10 10 10 10 10 10 10 10 10 10 10 10 10 10 10 10 10 10 10 10 10 10 10 10 10 10 10 10 10 10 10 10 10 10 10 10 10 10 10 10 10 10 10 10 10 10 10 10 10 10 10 10 10 10 10 10 10 10 10 10 10 10 10 10 10 10 10 10 10 10 10 10 10 10 10 10 10 10 10 10 10 10 10 10 10 10 10 10 10 10 10 10 10 10 10 10 10 10 10 10 10 10 10 10 10 10 10 10 10 10 10 10 10 10 10 10 10 10 10 10 10 10 10 10 10 10 10 10 10 10 10 10 10 10 10 10 10 10 10 10 10 </DataArray>
</Cells>
<PointData  Vectors="f_18"> 
<DataArray  type="Float64"  Name="f_18"  NumberOfComponents="3" format="ascii">6.9605242401376961e-05 1.3793763689822926e-05 -5.6785887787426665e-06  6.7926131517836850e-05 2.0066865857269388e-05 -1.4432887897358835e-05  6.2708409683004721e-05 3.4878341882920446e-05 -8.5139558660106141e-06  7.9355702339195200e-05 2.8638213925669072e-05 -7.9684617609489363e-06  8.3428162655958569e-05 -2.0241584646917885e-06 5.6998049965850897e-06  7.5110133519991237e-05 -4.4145084095262151e-05 1.3484660288683590e-07  7.9606956500264338e-05 -2.2015613113732962e-05 1.1357276613150887e-05  7.0196253815208668e-05 -1.3900409515100566e-05 6.2948637237524434e-06  1.1027836398665240e-04 -3.2076341506319713e-05 1.4701004206894968e-05  6.6430137083541471e-05 -4.6492217044086901e-05 1.8021323830510617e-05  6.7539714293618494e-05 -4.9206614686734641e-05 9.9309158802137514e-06  9.6701262580373997e-05 -5.8515448391697109e-05 -2.7050392947370406e-05  6.9787872821569551e-05 -4.1789567557302109e-05 -1.8479906157552952e-05  8.1961275211079237e-05 -1.6622685005402957e-05 -2.6356474775537430e-05  7.5847663870015988e-05 -3.4030965968936287e-05 -2.6227678730148031e-05  8.0299842503421843e-05 -1.4771889836853019e-05 -4.4211589195122092e-06  1.0964499445642336e-04 1.1605053618163010e-05 -5.2984785664878466e-06  1.1087409791403157e-04 -2.5899910760576335e-05 1.2720732699244297e-06  1.0713555071266357e-04 -3.1192116278378835e-05 -9.8879948949743779e-06  5.4415939476405992e-05 -4.5401384974699574e-05 1.5193263399980645e-05  5.9633398158430139e-05 -3.8515568636640738e-05 2.5854371484127199e-05  6.4101323597081533e-05 -3.1509753264655735e-05 1.6159841381304976e-05  1.0908717801555681e-04 2.1205037427542979e-05 -1.2980937773378080e-05  8.1770137142473455e-05 3.0870869563194610e-05 -1.7305261542731792e-05  1.0140511384169152e-04 4.8433755184910200e-05 -2.5741060163878243e-05  1.1224828889183922e-04 -4.8424548878629234e-06 -2.6392099968085270e-05  1.1161035731041012e-04 2.1589748954212060e-05 8.1960304272208362e-06  9.4463531226355826e-05 5.9159891869358023e-05 -2.0776662439164724e-06  8.0396470495123297e-05 2.3501953164204982e-05 4.7837078363654467e-07  8.1591092975901160e-05 9.7717203259947969e-06 1.7417507057479964e-05  6.8598219266016147e-05 1.8082140545609280e-05 1.1997134372921721e-05  6.5940219755162441e-05 2.5823757301256928e-05 2.5479780114456077e-05  6.2419997668663110e-05 3.2574101535386527e-05 1.6108356966068316e-05  1.0294782217380193e-04 4.8170985436985215e-05 2.5242297676407205e-05  8.1636833899725126e-05 2.1232758037672400e-05 2.5504891377253420e-05  7.6609876674756658e-05 3.9303621919052329e-05 1.6015452431695652e-05  6.4249657599119907e-05 -3.1137586050827425e-05 8.6088195944459486e-06  7.7771863966080181e-05 -1.7081654045991765e-05 1.9202807122996331e-05  7.1133087564192671e-05 1.2716065305949595e-06 1.2700125333538973e-05  7.0944611431250686e-05 8.4740313071372960e-07 8.6393919645527263e-09  6.2263024571038411e-05 3.4399292970743782e-05 -1.6125689456560334e-05  8.0296758104834556e-05 2.3776334948215777e-05 -2.5455197868468256e-05  5.8421172542544321e-05 4.1338792242846890e-05 -2.5048874566477982e-05  6.5505601232819367e-05 2.6721579736858024e-05 -2.6147483874689606e-05  6.1002143776655163e-05 6.4458681352012786e-05 -7.1537667766600307e-06  8.6435427221756136e-05 7.2060225559713076e-05 -1.4806466725838851e-05  7.0407015082541639e-05 1.1296535932361278e-05 -2.5822599033352806e-05  8.4770910668951262e-05 -5.9258353055865988e-06 -1.3525150787286891e-05  6.4182317422878865e-05 -2.9370312814364467e-05 -1.6963336572584832e-05  6.4492902322685556e-05 -3.0150567790019629e-05 -1.0060839575357597e-05  5.5765580395550575e-05 -4.3751552370040992e-05 -1.5730416268393246e-05  4.1826374068238071e-05 -7.3479139850138840e-05 1.6104311776931960e-05  7.1210570543596936e-05 -4.6861691918274396e-05 -1.0095451500586876e-05  8.1814965401786615e-05 -7.5953609294436135e-05 5.2590790173617642e-06  4.1624508658119714e-05 -5.7045501244775755e-05 1.0319476125592398e-05  6.8804177845844484e-05 -1.7769462577305791e-05 -1.6727546493725474e-05  6.7214246267353377e-05 -2.2061228409633144e-05 -2.5828212006653285e-05  4.1733981566487136e-05 -5.6183787378605310e-05 1.6997558981334015e-05  1.1252620145703682e-04 -5.5407302045689521e-06 2.6254902086843443e-05  8.3493083887643842e-05 -1.3067918141705226e-06 2.5731571748860128e-05  7.9537059380203128e-05 -7.6444264891016215e-05 -4.3268306606629393e-06  7.9786873021477130e-05 2.2516445538366477e-05 1.0052690243596166e-05  6.3378638022515979e-05 3.3034654316832293e-05 7.5442457572297996e-06  8.2540596199432359e-05 6.4123728574225035e-07 -2.5746370088099672e-05  5.6222581758808043e-05 -4.3370199258129168e-05 -6.7501186387075300e-06  6.5405248887460637e-05 -2.8269859421691148e-05 -1.9044168703385827e-06  1.0676598026830186e-04 -3.2520155222048282e-05 -1.5867053003428726e-05  6.9194658417116105e-05 -1.3334934192467156e-05 -1.1417419154141484e-05  5.7285447727759399e-05 6.2887362597010342e-05 -1.6846142389058000e-05  3.9564736600650832e-05 -7.4198993074186411e-05 -5.3915806809720740e-06  4.8739848482358858e-05 -5.1563370412362357e-05 2.4908712897763184e-05  7.0855933405595219e-05 -7.1237167838140000e-06 2.5601243926413157e-05  7.0461895101179105e-05 9.6428141853439923e-06 2.6189146315489851e-05  6.5544655749891231e-05 -5.2134646917353365e-05 2.4835758052089764e-05  6.9391367033685576e-05 -1.5403302923579685e-05 1.5509148106944698e-05  4.6179084491371676e-05 -5.4424363203190579e-05 5.7425684177752721e-07  1.1137036330896393e-04 2.1298398861947772e-05 1.7111412906391193e-05  7.1931859803985292e-05 4.8893316216595546e-05 5.4311000388096812e-06  6.3619337706952167e-05 3.2537903897873559e-05 -3.0436450823991165e-07  9.7458937604819035e-05 -5.5564486032009688e-05 2.5792050823910211e-05  7.5392502746962658e-05 -3.5994338631495581e-05 2.5659549198663654e-05  8.0847107612525194e-05 -7.6662732584338670e-05 -1.4854826723613752e-05  5.7787772689378885e-05 -4.0724095942671666e-05 1.4886597641198067e-06  7.0210396698511761e-05 -4.6756317338903599e-06 -1.6026598907861881e-05  7.0281471122610244e-05 -5.2444381121818710e-06 -2.5931658114494707e-05  2.8652976131585375e-05 -6.5058258017213036e-05 -7.1700484032387497e-07  3.7188560894581280e-05 -7.4824710394217464e-05 6.0946804800438964e-06  6.0254197986937869e-05 -3.7418689607024865e-05 -2.6290667655419575e-05  6.7555737089505615e-05 -2.3606975937222235e-05 2.5679982345402535e-05  4.4014641992408591e-05 -7.3127931489050681e-05 -1.4753134091536786e-05  4.9920190015795995e-05 -5.0629458133682533e-05 -2.5619945509767211e-05  4.3283308653065968e-05 -5.5916986132617111e-05 -1.6314703966270605e-05  8.8140741085662963e-05 6.9030374093434095e-05 1.2993203538698061e-05  5.9432525982923946e-05 -9.3463208988838831e-05 2.6196267762557950e-05  6.7234505137188738e-05 9.0479142015571339e-05 -2.6457426046526500e-05  4.7662102381811151e-05 -6.6875449318826773e-05 2.5570362135142095e-05  8.2509033594925811e-05 -1.8678936148224118e-05 2.5046188985144930e-05  6.8342853751979124e-05 1.8007878452499668e-05 3.3402899628753537e-06  5.8628128478935981e-05 -9.6467450997017858e-05 -2.6564416706658737e-05  4.9548365891205152e-05 -6.6375526862143608e-05 -2.6453334974809778e-05  6.2664802062064451e-05 5.6926852915169457e-05 -2.5097743554042902e-05  4.7070617899111355e-05 5.3774508779570737e-05 -2.5839181535582629e-05  7.9678854956595217e-05 -7.6487635640919377e-05 1.5790474267194388e-05  7.2064485326118804e-05 4.0924903786147013e-05 -2.5764664439521560e-05  6.7316381225306413e-05 -4.9384223708294240e-05 -2.5686483323051860e-05  5.2361207706622317e-05 4.8509483467256429e-05 -1.4316022833842064e-05  4.2630937253463002e-05 -5.6515957910435797e-05 -8.4241337116743665e-06  7.0697797358869528e-05 7.6110227724761495e-07 -8.8842274530569604e-06  3.7311339951752196e-05 -6.0122123052594391e-05 -2.6753060121238113e-05  5.2882750707903074e-05 4.7953745398229014e-05 -6.3402391671784743e-06  5.3721026406758273e-05 4.5993076299142702e-05 2.5994802960890121e-06  3.0549817855824861e-05 -6.4454704996113154e-05 -1.3163042656075809e-05  </DataArray> 
</PointData> 
</Piece>
</UnstructuredGrid>
</VTKFile>