<?xml version="1.0"?>
<VTKFile type="UnstructuredGrid"  version="0.1"  >
<UnstructuredGrid>
<Piece  NumberOfPoints="552" NumberOfCells="2230">
<Points>
<DataArray  type="Float64"  NumberOfComponents="3"  format="ascii">1.497553933621271 -0.9299888952757689 1.051401708821963  1.723509454997661 -0.9978215353029387 0.8599387015306912  1.603175712833004 -0.7179780603154297 1.166971448621335  1.738670460969055 -0.9694572881401065 1.232012655497408  1.269947058333062 0.3626388851459498 2.684274026195443  1.4767278390955 0.2359207298638786 3  1.484813864121234 0.5896749138753508 3  1.247559817212835 0.2481550766895392 3  1.166099747272017 0.6275808168611772 1.569671802422877  1.246343196849299 0.2871914511843041 1.463260603318937  0.9081186916187176 0.4121698917342359 1.495578929490344  1.115014914449755 0.664178382377357 1.231298039236009  1.266922126336883 -0.8552825601474245 0.9890793869444463  1.603499978712499 -0.7599911991864079 0.858510318126826  1.582421191264103 -0.5272061569022808 0.9863163909996424  1.339507718413847 -0.6999225836316151 1.171427264265846  1.331631675302982 1.075644226590585 0.7427025225229377  1.491416493164115 1.320141519018512 0.7572846653028551  1.266603435826646 1.134828903839546 1.021613359460302  1.656495002398096 1.1189927735181 0.8921219209227598  0.8415248583882122 0.8186074859553321 2.762647266441338  1.01017680706372 0.7830812049227713 3  0.8520051501267096 0.5171509439852667 3  1.126888954052144 0.6681851394435211 2.695702277715691  0.9530377358237719 0.9485576382829037 2.633905012019921  0.785242760231733 0.6118978152447206 2.59205970188895  0.9142417789429336 0.827459334637151 2.360146602251166  1.410318934244185 -0.9111586153381305 0  1.465907151919879 -0.9984730424788163 0.2172742162374254  1.733506800037224 -0.9791178182666612 0  1.479909993475237 -0.7682026425289157 0.2858410267811749  1.352469951392823 1.157329253277371 1.459232049490172  1.601614723428512 1.185864586927789 1.531841789053977  1.394496726906461 1.019249133009212 1.666860244828857  1.500640819621185 0.9293140676957232 1.456133308611717  1.122229454200134 1.225737995178475 2.534786329470682  1.165637108013253 0.7851941080111963 2.453728939295619  1.152002961473718 0.9976054101454552 2.28508978773055  1.641183972767365 -0.08086354815262135 1.91319189243527  1.322657908994097 0.07314712133113015 1.84571429568965  1.421160066354013 0.1648031196956253 1.618618604393672  1.474883172881394 -0.09108440626897743 1.582406010911425  1.139053451992402 0.580641381212873 0.5104985438510611  0.79840087828554 0.5958646020060542 0.6027225483598206  0.914171071328564 0.4008466857189293 0.3058452473438621  0.9066528007298537 0.4149123806933417 0.7553452832223546  1.661433677745688 0.4567965262230854 1.528680796761813  1.413258630617723 0.4957320168241518 1.296573873598289  1.362619788599672 0.3978435692102224 1.734130052315586  1.216567604785609 0.1658433812605938 2.054253110628363  0.9494366041924407 0.2984330579181564 2.125369844989875  0.9991865259473796 -0.008259340662152212 2.287968233049495  1.240986756051685 0.3126806997713886 2.286683081109373  1.501145165591527 0.715944735626173 1.591166637112397  1.631081950642508 0.6600294884663581 1.382165194515427  1.695169390034988 -0.07534086820466786 0.2893799747718582  1.549467691542403 -0.4491521444899907 0.3730949252242547  1.726406769544368 -0.3263466495875754 0.2261722903773296  1.714237189425319 -0.2101819387451271 0.5200727776800095  0.7852427602317333 0.6118978152447203 2.762235612167714  0.7117128119686211 0.7014943164396241 3  0.9777758768151188 -1.348216993986192 0.9918469369685869  1.095144249706515 -0.9991198228822549 0.877457965196244  1.281164483440818 -1.100695283167518 1.179269542298964  1.321427586485184 -1.181768205949974 0.8641150343349495  1.323612625207123 1.193287094455838 2.176021006508231  1.167928895928782 1.173882084854657 1.94145071994378  1.031766936443343 1.348283730697958 2.231342139160024  1.787272571795037 -0.8785291342494904 0.2673821819830821  1.841038343552851 -0.7779404502323188 0  1.684285838260382 -0.5576451795149887 0.2134436497599698  1.942868251577821 0.4518338950460338 0.3134538353217151  1.605332365585403 0.2285011191471091 0.3448026455806886  1.977641053560121 0.2270141928915059 0.2557860430762646  1.977641053560121 0.2270141928915059 0.4492520385318801  1.998838593134564 0.01179196179410744 0.5534736031975531  1.988386919539986 0.117909584635533 0.7692837751537056  1.708697052989893 -0.1278824122201236 0.7950025566764369  1.977641053560123 -0.2270141928914856 0.5658979254802281  1.748002867292792 -0.2613956547999485 2.792669189507735  1.895352963259474 -0.6084708088019486 2.660602090829001  1.983929507246339 -0.163166451140751 2.703850436932474  1.928461762032969 -0.499325726417098 3  0.7734943668628017 0.6262132739847579 1.290516220347056  0.6155714332069855 0.782227899884495 1.116995164022528  0.8135740139693522 0.9214686948614513 1.281296001132774  0.9585684782132136 0.8445876564570292 1.040074403278019  1.347042302807274 -0.9006190768097603 2.624250684732806  1.710040840164151 -1.02301954134551 2.504937398631578  1.495306936077182 -0.9680374669233975 2.78733531921882  1.581538098783715 -1.210328024839381 2.672080046702937  1.660059562757285 0.2119384033264062 1.720507002659895  1.968557267095729 0.3192434246291332 1.888359676380478  1.899814479886063 0.5937631595422528 1.793371101941705  1.608182956164474 0.543976366073243 1.804733138884222  1.022899481669183 -0.8720254180038959 1.208965058497697  0.7565147063597757 -0.6469030501709819 1.110841064724566  0.8759584548557765 -0.4723374628096901 1.037838019869259  1.124942306796477 -0.6639412424209992 0.9123567056972074  1.67895408362749 0.4370489797473934 1.156838159739098  1.909642903303957 0.5613631896430733 1.335302611914956  1.188179795098442 0.1808005360122215 0.1982206534656708  1.244869039909235 0.2476198478059887 0  0.9470633557265229 0.3062566096303283 0  1.278859660179556 0.3268370880171415 0.3302070387997395  1.42305500163819 -0.235261026525197 1.33986711601181  1.23143457712679 -0.087024358618913 1.44822462272553  1.252588462798452 -0.3037578293719645 1.673769628224802  1.862287014276638 -0.717474634357655 1.478380477626664  1.951729332652096 -0.4226228254905615 1.684165591503963  1.635464373222559 -0.6340084936718524 1.630114852910802  1.884636203808672 -0.6437992301427082 1.808589540450422  1.889322757365143 -0.6283497335444969 0.5738378286160368  1.942868251577826 -0.4518338950460145 0.3534671174188525  1.87676409667126 -0.6697500895481858 0.2897313307860865  1.627267295473881 -0.7319606141220405 2.76804050033594  1.86224416448598 -0.7176158911867992 3  1.596314120694009 7.271960811294775e-15 0  1.770872021915538 0.1321725600421538 0.2156708121571308  1.98882052678006 0.1135070964457581 0  1.727038821644253 0.2023320273856744 0  1.521306094869681 -0.679876513307954 3  1.647445638758131 -0.5285306936744546 3  1.438206875785329 0.7197698650596768 0.3842777712044098  1.584858964729974 0.7447906552294696 0.1874708327260145  1.36749920480456 1.005350704390361 0.2928801506650885  1.679852743081404 1.079497498589653 0.3246036746331542  1.374537895574029 -0.565527493733493 0.7062807409973615  1.406003023520686 -0.9066631863480832 0.7562857402274894  1.036590094932914 -0.7077778032396923 0.5744980369504201  1.143117929213057 -1.332984790918304 1.291712047176803  1.211759553235815 -1.580363273790293 1.573400789366199  1.376292578884149 -1.445334509249837 1.428334545287665  1.179683632199664 -1.606687301880956 1.194714787904707  1.727831496223673 0.3053975023895797 2.753589765076476  1.969983309772718 0.3047645703496642 2.600364578287666  1.957431960959771 0.4038237793303748 3  1.982532073093845 0.1773548381964919 3  1.434201923315457 0.6898089408598096 0  1.733506800037214 0.9791178182666787 0  1.429586372154414 0.9231922039811385 0  1.337134696909384 -1.009751336514745 3  1.337727742492635 -1.134018345326675 2.760070239660308  1.509181542498043 -1.298494743772877 3  1.090422153579626 -1.323064863073947 3  0.8912759720074899 -0.4436804038235074 2.342440520988019  0.8726087114059971 -0.478604392017481 2.561785648061043  1.074387660584865 -0.7413601581968685 2.512562118945251  1.282379866447789 -0.4712667190396849 2.628283478693501  1.991569571675232 0.0855955752218884 1.234881321711428  1.999999999999999 1.056237892248978e-14 1.498246855335964  1.641919140899937 0.1895781493796465 1.370667494351562  1.666086308269792 -0.1297951300767494 1.32416441731503  1.876764096671261 -0.669750089548184 0.8592438288234936  1.866053332419584 -0.7050587473660511 1.180732539244401  1.777974709034347 0.2014836567612767 2.194231021100105  1.751812448427155 0.1452212327923848 1.947848860599114  1.68869356667868 -0.03995619810865415 2.231368422887011  1.501918822463875 0.1976329650058682 2.113752684885754  1.160443483716708 0.9475900092150403 1.167203002723368  1.252456121015855 0.9304429933793548 1.409616570295079  1.543404142441013 0.7766799381092869 1.176259972315923  1.364035053494059 -0.6332246414940789 1.651635798090307  1.578345588653854 -0.4484070890946016 1.369656974329539  1.602853999223423 -0.3846511175337285 1.734494465800862  1.265432224172826 -1.536315251105162 2.634595007572392  1.184600732689512 -1.317868085482662 2.779272303333936  0.9801666994139839 0.1971295102541218 1.864687898271195  0.9961930054511243 -0.03865306431943142 1.825785329347914  1.714133850753991 -0.009526106923234176 1.062168169206496  1.670898484193412 0.1858410549600799 0.6740034087550382  1.543936495769325 0.2175006024263709 0.9921183876926787  1.710145243741435 0.3606197036126997 0.8582413234281099  1.808842807264607 -0.838174062074613 0.7078804865279258  1.077168197567472 1.22108614020189 0.7886821271081074  0.9558336858219978 1.133613571114183 1.140304209729167  1.112611018414472 0.9659842198834007 0.8346122094258748  1.475357266467591 -0.0890608896979575 0.5145105409779778  1.251896599718518 0.1182866894121717 0.5544979304461281  1.549911663318429 -0.6784416973751866 2.525352283070309  1.73690136321656
[...]
<PointData  Vectors="f_18"> 
<DataArray  type="Float64"  Name="f_18"  NumberOfComponents="3" format="ascii">5.6667974158914364e-02 -3.5301245964275939e-02 7.1247874172544251e-03  5.2736631493240177e-02 -3.0530883891654967e-02 8.6947232951679731e-03  6.1098579517772346e-02 -2.7866085254395243e-02 5.4405806104131709e-03  5.5158809110238884e-02 -3.0216567485099734e-02 3.4418167204435623e-03  6.9152352279462967e-02 2.0784340099713378e-02 -2.5775591487094400e-02  5.9833186328047877e-02 9.9113578318649337e-03 -2.7112932046972581e-02  5.4685132933562135e-02 2.2453861467556391e-02 -2.5740968054180819e-02  6.5836625211903768e-02 1.3674993691401471e-02 -3.2873370920556789e-02  6.9689247258182596e-02 3.8625237128490170e-02 -1.9064277590271272e-03  7.9197242153229069e-02 1.8711185984136028e-02 8.9238608308844563e-04  8.4794829802154872e-02 4.0099063504527237e-02 -5.8965520769406536e-05  6.8469680708444003e-02 4.1967318563745755e-02 6.3207970751707311e-03  5.9644955221422047e-02 -4.0626715243544269e-02 9.9374010412383845e-03  5.8798382610827822e-02 -2.7823544715771167e-02 9.9383115689744873e-03  6.4540998777061626e-02 -2.1516675572758909e-02 8.7547611864590910e-03  6.4323571099304699e-02 -3.3694753438197861e-02 6.3663417431587552e-03  5.0974987897019618e-02 4.2683583265873515e-02 1.2501219361139215e-02  4.5245617238893851e-02 4.1342905442036462e-02 9.8525426383316746e-03  5.0078465003457334e-02 4.6579823067962142e-02 7.9325572420694754e-03  5.0832476250632787e-02 3.5255978207181057e-02 8.0431263390415824e-03  5.4207905171710286e-02 5.4557970333290233e-02 -3.0777178474384163e-02  5.2488678190238572e-02 4.1962513551734928e-02 -3.2813461416568643e-02  6.6592493775023145e-02 4.1768465019766401e-02 -4.2159229445951622e-02  6.1910378633558555e-02 3.7855791964909263e-02 -2.6277686365938198e-02  5.1030260174010890e-02 5.2154387369031906e-02 -2.3982412908253939e-02  6.8475248394008661e-02 5.4486202248903458e-02 -3.1775897992099247e-02  5.8911623757741234e-02 5.4740147667707691e-02 -2.0608633276651939e-02  4.7182949141352730e-02 -3.0854450242122612e-02 2.3804716432774566e-02  4.7906353619588671e-02 -3.2993197552621964e-02 1.9541392206537646e-02  4.4509098313659026e-02 -2.5398429988808448e-02 1.9353117558440467e-02  5.4258307781155424e-02 -2.8400931993252922e-02 1.9767293495407706e-02  5.0871806128820217e-02 4.4903067346713336e-02 5.0673863095957361e-04  5.0586039174730105e-02 3.8791098914092423e-02 -4.6961910246922983e-04  5.4858961311246297e-02 4.1388879982818767e-02 -2.8398811697260681e-03  5.7062286343958740e-02 3.6818458186398888e-02 7.2744524600467904e-04  4.3644689160346944e-02 4.8849772489294334e-02 -1.7457215922395037e-02  5.9896482622477924e-02 4.1566118210323313e-02 -1.9766544509895644e-02  5.3002380526132049e-02 4.7580918541082394e-02 -1.4769622829559199e-02  6.9680718654646340e-02 -2.1989092705955908e-03 -7.7580228852450759e-03  7.8464958032702647e-02 4.8280108431852774e-03 -8.1126647811503756e-03  7.5506881465588302e-02 9.1733794304393167e-03 -2.4847348188597380e-03  7.4142954748195045e-02 -4.0462395948451836e-03 -2.2130141569646515e-03  6.7473570731727550e-02 3.5133484808948762e-02 2.2432511770615390e-02  7.0944391201393675e-02 5.5375055806744573e-02 2.5763840671156606e-02  7.7290260214330719e-02 3.4461945397134902e-02 3.4724761565140434e-02  8.2874919388217963e-02 3.8691520996685304e-02 2.1155804521562259e-02  6.5550880239587661e-02 1.8831718540684245e-02 -8.2471299610959706e-04  6.9215370728851824e-02 2.5098711665713459e-02 3.6615997670644169e-03  7.2877537854613719e-02 2.2042646851399013e-02 -5.2718293810922147e-03  8.0914789934321746e-02 1.1800355327753979e-02 -1.3496499546289726e-02  8.7537066478938899e-02 2.9065069673751814e-02 -1.8630155459206526e-02  9.0613613249775446e-02 -2.6691646605279658e-04 -2.3061999847723717e-02  7.5393503640450985e-02 1.9780545830528854e-02 -1.8306141147497398e-02  6.2818805619538245e-02 3.1208321003160077e-02 -2.0768084223391292e-03  6.2434503354543647e-02 2.6305521377703305e-02 1.4130856787235527e-03  6.0775708269802338e-02 -2.5010440702533713e-03 1.9436801693803418e-02  6.1665752442589247e-02 -1.7838492690690044e-02 1.9405689498801844e-02  5.7234935985365845e-02 -1.0407115738334945e-02 1.9641918795615377e-02  6.2709765114683264e-02 -6.9311180784626799e-03 1.5731269575407884e-02  6.6306601123482425e-02 5.2483325854085404e-02 -3.6274463643415730e-02  5.5109250765521318e-02 5.5949869599608980e-02 -4.2349861385584844e-02  4.0079176683275937e-02 -5.6000588510870274e-02 8.9498771849743086e-03  5.3363284645811707e-02 -4.9100069829338559e-02 1.2465280006917096e-02  5.1604137967828652e-02 -4.4746238420995531e-02 5.2589317062372186e-03  4.8265409975027630e-02 -4.3684644502570084e-02 1.0187268671645586e-02  4.8251155084571611e-02 4.4656469647882314e-02 -1.1093464163767519e-02  4.8725377119990122e-02 5.0048262925431304e-02 -7.8785761462129567e-03  4.0122229282594013e-02 5.4133255283565287e-02 -1.2565343587135963e-02  4.9217195015431238e-02 -2.4369123766346569e-02 1.6086203281034071e-02  4.6970762888866126e-02 -2.0158840291460325e-02 1.9178570603586107e-02  5.5147769041541249e-02 -1.8096060036545503e-02 1.9312174592917921e-02  5.4120429876059938e-02 1.3211869677709055e-02 1.5385663932288442e-02  6.2501622421964290e-02 9.5743501173137496e-03 1.9569113122691686e-02  5.4322348772610642e-02 7.0036778032422546e-03 1.6108880561820350e-02  5.6887028694405671e-02 7.3493617063279115e-03 1.3515271975941630e-02  5.8536936972566914e-02 7.9491252539065258e-04 1.2565430267663958e-02  6.0481001985747476e-02 4.1742404868261281e-03 9.7945161862745735e-03  6.5389098257557385e-02 -4.6080530536739316e-03 1.1703896084960311e-02  5.8031710856556395e-02 -5.9399110760365468e-03 1.2500919608913811e-02  5.7941884223780264e-02 -8.1503612666694921e-03 -2.0048952537280368e-02  5.3725990032900191e-02 -1.6930140777348238e-02 -1.5595634126936391e-02  5.5643586151150691e-02 -3.7815416838723184e-03 -1.6195940001265348e-02  5.0216446993631321e-02 -1.2704081349109882e-02 -2.0029513194786248e-02  7.2810984332430953e-02 6.0198094925095189e-02 5.7934440920737245e-03  5.6915072601108577e-02 7.5340321327310514e-02 1.1175078294717710e-02  5.4474858258472758e-02 6.3581640175752616e-02 5.1780852809935390e-03  5.9854521578978470e-02 5.4991362216427232e-02 1.0627780403455222e-02  5.3429233247989802e-02 -3.5661784533714068e-02 -1.9822807427677530e-02  5.0212115215140789e-02 -2.9706364086845946e-02 -1.3630465179227086e-02  4.8706927257738675e-02 -3.1546335622831323e-02 -1.9899746323845294e-02  4.4847107955375838e-02 -3.4356654657129893e-02 -1.5640820872077778e-02  6.8385761785551474e-02 9.5128829315585615e-03 -4.1254646359537538e-03  6.1712510162234141e-02 1.0576121534952555e-02 -6.2212347125997214e-03  5.9720724497147673e-02 1.9625092348283989e-02 -4.5140573323598525e-03  6.4789147574076833e-02 2.2613677081214166e-02 -5.8236506657764701e-03  5.9690390705154285e-02 -5.0868574020838331e-02 6.4649614660978443e-03  7.1460905718228773e-02 -6.1550698696576443e-02 1.1404294432717975e-02  8.1283449746603342e-02 -4.4426184308432093e-02 1.3418134474516376e-02  6.6737398239616996e-02 -4.0141127638052235e-02 1.3845886824763547e-02  6.5066128428519110e-02 1.8283251939928680e-02 5.4023482183543185e-03  6.0214922426503732e-02 1.8424437686387161e-02 2.1188800245480820e-03  7.3004929054226467e-02 1.1542410061888650e-02 3.0805362304895546e-02  6.5448005889435446e-02 1.3505001883036927e-02 3.2738010510543265e-02  7.3306770746817337e-02 2.4805949010538002e-02 4.2603806936200521e-02  6.9183961800423133e-02 1.8335808648108274e-02 2.5135237399236256e-02  7.4632837808582250e-02 -1.1408336097798283e-02 2.9580133488806776e-03  8.2483317681097595e-02 -5.5347918281402281e-03 1.7667863345093785e-03  7.8539501663144648e-02 -1.8764329048993084e-02 -4.3345206373915828e-03  5.8854684431724383e-02 -2.2578607814140478e-02 1.5810648169361255e-04  6.1299250424130106e-02 -1.2676575436194226e-02 -3.0800766819891212e-03  6.3172696673812589e-02 -2.4646647109805728e-02 -2.3611232958889606e-03  5.9906319583018716e-02 -1.9948567671471976e-02 -4.5182944238570276e-03  5.5651700461836394e-02 -1.8365421612970060e-02 1.2237096429936751e-02  5.4518380773457019e-02 -1.2733531677663827e-02 1.4879394984915665e-02  5.2032295563479235e-02 -1.8495788879260042e-02 1.5689601675026452e-02  5.2868550736571665e-02 -2.3653853658569236e-02 -1.9749022204866313e-02  4.8287477505040373e-02 -1.8480173028936699e-02 -2.0130097111251469e-02  5.8050512978838426e-02 2.1536416397621784e-04 2.5311952171106187e-02  5.7652923017273629e-02 4.7244552698352191e-03 1.9475352432401134e-02  5.1273770144534075e-02 3.4697869529193943e-03 1.9500047588592966e-02  5.4802178765592124e-02 7.2063956178954084e-03 2.2879218094605695e-02  5.1859274598416986e-02 -2.3014854651959567e-02 -2.4329971613834538e-02  5.3090299868614736e-02 -1.6831026998466489e-02 -2.3591758049590468e-02  5.6798213269131030e-02 2.9719497715766631e-02 1.9031389295147923e-02  5.1992484628782643e-02 2.5551395223267982e-02 2.0058400931176612e-02  4.8551668997610362e-02 3.7548506288893647e-02 1.9297137987564737e-02  4.6469341211786273e-02 3.1324528847898422e-02 1.5014496739813850e-02  6.5788723843474270e-02 -2.7268936895132257e-02 1.5438975467957496e-02  5.5808957973797708e-02 -3.6708907570349621e-02 1.2568926974327595e-02  6.3906870272917388e-02 -4.4124533187720187e-02 2.1456470977039569e-02  4.3130161390209407e-02 -5.1187244575426831e-02 3.3582829213410961e-03  3.8754082742263107e-02 -5.0589675202311071e-02 -1.2099584344720607e-03  4.3422462990745939e-02 -4.6091893634827547e-02 5.8034733951453480e-04  3.7083780699596579e-02 -5.0894428561048241e-02 3.8225243309468614e-03  5.8410314016908972e-02 1.1311723441025927e-02 -1.9919677801111695e-02  5.6961921246117320e-02 9.4830531498990064e-03 -1.4841662796399344e-02  5.0774412114495251e-02 1.1223816806739914e-02 -1.9829149456797191e-02  5.1413913789935518e-02 5.5070701258847299e-03 -1.9692696083218417e-02  5.1907822635390205e-02 2.6092020359050117e-02 2.5013880732182144e-02  4.4204682600523855e-02 2.6205439719934307e-02 1.9087767345295784e-02  4.6128808925898400e-02 3.1760913558025135e-02 2.3398674885316290e-02  4.5072061019497095e-02 -3.4495890571870080e-02 -2.4162361065926057e-02  4.5089450487832597e-02 -3.8452088786282382e-02 -1.9833915372130348e-02  3.9385165405026963e-02 -3.3984463039609565e-02 -1.9765310526985599e-02  3.5377899479684102e-02 -4.3388678557109428e-02 -2.4005029872181272e-02  8.0444017296757209e-02 -3.9826757838842222e-02 -2.4835038997237231e-02  7.7290705204141774e-02 -4.2099145788325784e-02 -3.0791746450703789e-02  6.1825415759648915e-02 -4.2736754124815146e-02 -2.2440273760242369e-02  6.7142931842093773e-02 -2.4504982388434224e-02 -2.3785603496237307e-02  6.2418896948016250e-02 3.4830748375456969e-03 3.3042274066753382e-03  6.3148948468092075e-02 7.2345534150308928e-04 -2.4199078763979185e-04  6.8778043983964823e-02 9.0095412028903914e-03 1.8601115126651141e-03  6.9445229674010220e-02 -4.4872273953586407e-03 2.8289000758242189e-03  5.7211297521527711e-02 -1.9898932936334608e-02 8.6601483904369461e-03  5.8717877885426491e-02 -2.1070295878880645e-02 4.3911524974748622e-03  6.4127789204332541e-02 8.0324860984992332e-03 -1.1482193622807493e-02  6.6260035099719145e-02 6.5786479982804687e-03 -7.6305647577114347e-03  6.7028158136597599e-02 -1.0769779646863026e-03 -1.2875108919799774e-02  7.1390570653350915e-02 1.0725540650286558e-02 -1.2044065542897137e-02  5.6609795161124986e-02 4.8032527343165918e-02 6.4577962748351807e-03  5.7637566104346866e-02 4.4381130723405181e-02 1.4613134588159756e-03  6.0166877192221489e-02 3.1500918914258033e-02 4.9782957901192571e-03  6.6897488167274546e-02 -3.0731541832364699e-02 -3.3050172425043035e-03  6.7520510740681050e-02 -1.8718965899332602e-02 2.1517166143457675e-03  6.7991846112603560e-02 -1.6087727352815447e-02 -4.3792179831249126e-03  3.6358584070979520e-02 -4.4214488922912763e-02 -1.5225603931813667e-02  3.8929844465484108e-02 -4.3692693971512431e-02 -2.0021853911951187e-02  9.1071658459754956e-02 1.9553757389132318e-02 -1.0465581441815803e-02  9.2770290551393353e-02 -3.5977413072946487e-03 -9.8927164395294417e-03  6.7749252317766614e-02 2.5679803511100018e-04 7.0529881840596656e-03  6.5292663567672216e-02 8.2987886011443995e-03 1.3684640412517561e-02  6.9908500374400731e-02 1.0365829618367193e-02 9.1925182146253576e-03  6.4070520642999965e-02 1.4171134888625982e-02 1.0601657409331919e-02  5.4610393540712808e-02 -2.5201551100165236e-02 1.0328464214810958e-02  4.4954251671569329e-02 5.2563419551245348e-02 1.2429358050945950e-02  4.7139714794621194e-02 5.7792437812610634e-02 6.9350219820936932e-03  5.4484659471085585e-02 4.8725053466241210e-02 1.3204547614535702e-02  6.9468343007846003e-02 -3.6615055670017587e-03 1.9020789916580152e-02  7.6748931251460900e-02 8.0474744120074548e-03 2.1722636072050546e-02  5.8389658913816964e-02 -2.5441201819195583e-02 -1.7303573603858223e-02  5.2881378044822847e-02 -2.9275443991827285e-02 -1.0879085426541722e-02  5.9215251256288320e-02 -2.7342955012035260e-02 -1.2172868631708487e-02  5.6451535604117774e-02 -1.9587520925526482e-02 -1.1766920053296699e-02  6.3188668750594090e-02 3.7282292337127987e-02 2.9014022115639627e-02  6.0151148311023146e-02 2.4999585559610134e-02 2.4070378617415358e-02  8.4908983995785503e-02 3.9904781091125024e-02 -8.8927955540695127e-03  8.0231318104777655e-02 2.9050745400584707e-02 -3.9527458772509105e-03  7.1092338047691384e-02 4.2664202272326320e-02 -9.7218979111667464e-03  7.5959792997746675e-02 2.6576488978145307e-02 -1.2231323371011810e-02  5.9598866564001166e-02 2.2886554152848810e-02 1.3822101282962284e-02  6.1250111779808020e-02 1.4511337772566781e-02 1.5352104736929738e-02  5.3778915860210920e-02 2.0296008851292187e-02 1.3555003429672537e-02  5.7045861828527084e-02 1.4232829007914550e-02 1.2269318718618270e-02  5.6309058794666168e-02 3.0281959309329500e-02 -1.6076418896436521e-02  4.9345445897169708e-02 3.4792009564352896e-02 -1.2685976077748009e-02  4.5612715557916642e-02 3.3011214476401575e-02 -1.6239401422916026e-02  5.0117469242970628e-02 2.7802888501593192e-02 -1.5394514140500441e-02  4.4342583495708514e-02 4.4639335979944371e-02 5.4461388103343843e-03  4.6661187912011903e-02 -4.1419687349532934e-02 2.1841113266830865e-02  4.7915380164952982e-02 -3.6991704317376230e-02 2.7408572809479601e-02  7.1178089429812588e-02 4.2347624887768328e-03 -1.7027867987535091e-02  6.2745656569826613e-02 5.2957063570021083e-03 -1.5067897285502063e-02  6.1574935429722727e-02 1.2220469707924987e-02 3.4529203576614104e-03  7.3338255128079136e-02 1.0442183372223801e-02 -3.0451984259930665e-02  6.5310963429166424e-02 3.6677530022988167e-03 -2.4923561923046157e-02  5.0415018785993575e-02 9.5231582740522430e-03 1.9164769193162155e-02  7.1754036942242222e-02 6.2259943043554269e-02 -3.7338190391931511e-03  4.9628673916843662e-02 6.1608763327492135e-02 -9.9795357016995204e-04  5.8098772367643069e-02 5.6441485528479642e-02 -7.3618509947790600e-03  6.4131788991457883e-02 5.4395450720545871e-02 2.7530794473951272e-04  6.9217863029234467e-02 -8.3872322797392557e-03 -2.5566815121611113e-02  7.5891865584078844e-02 -1.3564397020239130e-02 -2.3149171397664953e-02  8.6512359748994516e-02 -3.4968619714877288e-03 -3.3962811418802051e-02  7.7239857320271332e-02 2.4443915906281915e-03 -2.2921611659304886e-02  5.8012807633816693e-02 2.2573758428827060e-02 -1.9875154731230419e-02  5.2859580092454755e-02 2.1338605536697038e-02 -1.4559385486001563e-02  4.5474065953121909e-02 4.4397472729351808e-02 -1.1863243136638018e-03  4.8503964549755869e-02 4.1267616556476858e-02 2.3425475869413761e-03  4.6130470170099129e-02 5.0364501160676110e-02 3.2115357455833882e-03  5.7686357313790182e-02 2.3601304888060885e-02 5.1030061150813171e-03  5.7492571466311537e-02 2.5182039763570373e-02 2.3667398728648599e-03  4.7743877705313784e-02 -4.7029770414612079e-02 -1.0283560052167229e-03  5.5176254352186468e-02 -3.7069462636813474e-02 3.0408824484779652e-03  5.5439011405971156e-02 -4.4684962199748261e-02 -6.2059948290367419e-04  5.9327988159555485e-02 -3.4462749935916852e-02 -8.4357305972496618e-03  5.8631608003775953e-02 -3.4044502190540872e-02 -3.1250063046660980e-03  5.3397765073697812e-02 -3.2856549533520719e-02 -3.5176838152543061e-03  5.3651693151999580e-02 -4.2162692903126499e-02 -5.2966428928138279e-03  6.3075018230498534e-02 -3.2280546047230740e-02 -1.5789667050075798e-02  5.4482062868298854e-02 -3.5459157888451345e-02 -1.4356667554684373e-02  4.6234228475571626e-02 3.3199907557851606e-02 -2.3294002726389020e-02  4.8883209519243784e-02 3.3002205084780023e-02 -1.9868925859312762e-02  4.6610114670816286e-02 4.4254766228644438e-02 -2.2284088227665380e-02  4.1648104210152047e-02 3.8096729595751846e-02 -2.3271292009774923e-02  6.5156098691185216e-02 -1.8880716650065233e-02 -1.2428936443052837e-02  6.5779884481490414e-02 -2.1270759226134278e-02 -1.7757149857997267e-02  7.4115160927889875e-02 -2.1867122203346974e-02 -1.7735867967687398e-02  6.4888799760933688e-02 2.6622037245113493e-02 -1.0888645500437662e-02  5.7177573712242802e-02 2.3219044888245645e-02 -7.9107074877875425e-03  6.4792597338131738e-02 1.5970259634689423e-02 -9.1184623781569440e-03  6.1608741312545179e-02 4.1589063723786006e-02 -6.9328322342428073e-03  5.5240436927531007e-02 5.0150038571000644e-02 -3.2129803367151838e-03  6.2800940243313216e-02 2.3933543153212649e-02 9.8479169319497205e-03  5.8834718711352825e-02 1.4988121078688086e-02 9.2805694630151390e-03  8.5546364338503322e-02 3.8195100732539920e-02 1.1243897361335521e-02  5.6121797926518120e-02 3.5092052647352018e-02 -1.2019493393596405e-02  5.3769470136765390e-02 2.7381943132383606e-02 -1.1565103199319211e-02  5.9397325226601447e-02 2.4641847239057935e-02 -1.1744286355497947e-02  5.4446265571789110e-02 3.1317555037098384e-02 -7.3760469729443499e-03  9.2357732507113252e-02 -1.2107995734916418e-02 -1.4427530644624723e-02  7.4794222351615328e-02 -1.6509935156716896e-02 -1.0497427183868794e-02  7.8181161891351394e-02 -2.4566914378309351e-03 -1.5123224768259672e-02  5.4973291629174498e-02 2.5409078566064541e-02 9.6759397970517785e-03  3.9814017682673279e-02 5.0464895881485949e-02 7.1431138284086182e-05  6.0312275992245548e-02 3.9805246741589986e-02 1.0148081013130271e-02  5.4780060165700258e-02 4.0255738979383150e-02 4.7416759106467463e-03  6.0802895520766710e-02 -1.0744686136898067e-02 -7.1160526531724635e-03  6.3300834398101163e-02 -2.3583963520162256e-02 -7.6189136533851296e-03  4.5763792541528091e-02 6.4051680465576050e-02 -1.9504843036265890e-02  5.2121329416180341e-02 6.0365106448143725e-02 -1.4021926671281441e-02  5.6506456997615841e-02 -2.1792062782946365e-02 2.7449645971496392e-02  5.8387147753261474e-02 -1.3178071077939099e-02 2.7074896376815635e-02  6.3728472681980050e-02 -1.7289114323747790e-02 3.2435450837198433e-02  7.0158604677632949e-02 -1.4538323092190495e-02 2.5879628771751876e-02  8.1959395726577455e-02 -2.1710197097205907e-02 -3.4965123341757318e-02  6.2599667268709344e-02 -4.5033480963258918e-02 -4.3110620594208997e-02  6.0616975082650730e-02 -4.3284825052456496e-02 -2.9376743542308993e-02  6.7903499549379853e-02 -3.0875969870178464e-02 -3.0663213890345837e-02  6.0928037224202904e-02 -2.6768549916128346e-02 -3.3040670986156283e-02  5.6683556422594553e-02 4.9357155997293421e-02 -1.0865657197492870e-02  5.4095405078652896e-02 4.0843993518158789e-02 -7.9943832957227023e-03  6.9375492484148080e-02 -3.5833217361817729e-02 -1.1245714926225737e-02  6.4712413779200895e-02 -1.2154166461220507e-02 3.8202951726839995e-03  6.5138784064124378e-02 -1.1074052613226219e-02 7.8131568441777832e-03  5.9826195211423315e-02 2.8058845132684196e-02 -3.1663367929549907e-02  6.8581628118394647e-02 3.0225497419335536e-02 -3.1038134475530530e-02  7.4153982580227831e-02 -4.0841269704263411e-02 -3.6256497791129903e-02  4.1182136492712094e-02 4.7004434304734437e-02 -8.1614994969333617e-03  4.9041188659154134e-02 4.0593072000292378e-02 -4.4322385238536391e-03  4.1673314601552380e-02 4.7886010479395842e-02 -4.5289423013700715e-03  6.6281148916719296e-02 