<?xml version="1.0"?>
<VTKFile type="UnstructuredGrid"  version="0.1"  >
<UnstructuredGrid>
<Piece  NumberOfPoints="1544" NumberOfCells="7131">
<Points>
<DataArray  type="Float64"  NumberOfComponents="3"  format="ascii">-1.528407021560024 -0.1223679279972765 0.2216749016847578  -1.616367675847036 -0.370909658942107 0.1642234085509218  -1.473462720355558 -0.2879607080704417 0  -1.449009243839573 -0.3962807823147068 0.2109175911846373  -0.8781943570813444 -0.7745618986412175 1.422869427224792  -0.955217320792347 -0.9527184678834343 1.371230704081954  -0.8475093267591888 -0.822455811150119 1.17409325042948  -0.7738664993794891 -0.9627376191636698 1.304604169931725  -0.4990054364240204 -0.8617041259856751 0.2569410986845065  -0.5918748389558864 -1.085175586344858 0.2738074967758538  -0.3688491168294892 -0.9280761262489887 0.3300760424629998  -0.4922428590829268 -0.8653187988822182 0.4241280697214569  -1.515124839582729 -0.1413239192323957 2.494970903857733  -1.542304936240881 -0.3553446478043817 2.589922535598422  -1.531301083342066 -0.2469406307591743 2.349971252061232  -1.433516621472994 -0.3906533878807158 2.369608260756459  -1.790321908262559 -0.1359400023085897 1.59329122461374  -1.552447878431092 -0.1517280993030719 1.401022938033577  -1.696965121787855 0.005022563501815319 1.602685267723029  -1.553696811676687 -0.06987473143450718 1.653071467379156  -1.825713662961976 -0.3710157782818985 0.2972317067228239  -1.665736257823091 -0.5401314351128853 0.2441959424061398  -1.635345928454321 -0.300717767320218 0.3240539739491898  0.0808911091286354 -0.9920329211428032 0.2147789614275173  -0.01604060903215099 -1.16554818445953 0.1766097615666878  0.07340078397912998 -0.9927706537783795 0.3624664633421955  -0.07141739134058871 -0.9929660009027577 0.3923981418559908  -1.834659833569184 0.05411006212859725 0.6032579151883576  -1.991321199565352 0.08811733957303396 0.6811653766700074  -1.807355182189475 -0.04436722185485539 0.7456672517749947  -1.772712444186903 0.1482273834922889 0.8838650302260582  -1.472236218325768 -0.3457096418613904 0.8083840622177748  -1.654426691563033 -0.3918839033978203 0.6138030634085107  -1.740212602464505 -0.4625441539676962 0.794010716895973  -1.734128706883156 -0.2370380117725486 0.7849080115312334  -1.81721082800874 -0.3385812863725766 2.230638633143541  -1.920278857124933 -0.5263011487646481 2.363447904506016  -1.670464226322551 -0.3455012114220651 2.310981494070414  -1.741675018387468 -0.416195543983036 2.510290100107317  -0.2922497887267363 -1.110135635527742 2.213768322081968  -0.5529160698573018 -0.9829206581285101 2.138364979232225  -0.3124646235992822 -0.9451801752772526 2.303708664651847  -0.4047639178773533 -0.9120772671177818 2.090832628222699  -0.0640177889630098 -1.622806943634985 0.4704848386427511  -0.0991987408327164 -1.671655784788151 0.6749780739722862  0.06283097326430762 -1.509449355093871 0.6573880638819291  -0.1680634139028745 -1.479246799589528 0.5528175866093812  -0.4381121694463349 -1.768181673083376 1.373749359471254  -0.6181569519413839 -1.73080279357406 1.562226069681498  -0.5474151174296786 -1.593495531672433 1.420035266379063  -0.669937482616777 -1.720368809828869 1.403993151010294  -1.64003705442722 0.0006120575038251336 0.1643558607498966  -1.655506192573816 -0.133378387657026 0.3877305011138927  -1.610931325213302 0.04098210332831648 0.3790642025770452  -0.3538035913407252 -1.688325376285616 1.864154088277538  -0.3009471269582124 -1.574039224620456 1.616425447072107  -0.2229055361137948 -1.759803582351491 1.703242271650853  -0.4192183556227891 -1.608863380232063 1.731669191606972  -1.04319462230235 -0.4970354137406972 0.3728164617221355  -1.092465987312805 -0.3833352536983317 0.5694837272835773  -0.9438414498532157 -0.3168778098854057 0.3804698950467928  -1.194273581003658 -0.2432617018834167 0.4551356049000834  -1.630422137787281 -1.150762650968556 1.269576102710269  -1.517412267786211 -1.288465575991098 1.187216362134417  -1.404374990552079 -1.174817342033774 1.314283037992295  -1.515445740673501 -1.2908617962111 1.383447970304244  -1.807951600064751 0.09552313353665665 0.2813024085933347  -1.977775746008557 0.2256466375126116 0.2309004106092492  -1.991205880179936 0.0892881969421577 0.1832851866128929  -1.991205880179936 0.0892881969421576 0.3793196305737762  -1.548720799920463 -0.891842504802468 1.53036993783053  -1.670579067679387 -1.096847324960474 1.627784418669401  -1.579473314537204 -0.9283896692925009 1.698614759755494  -1.705800283093722 -1.030953065616966 1.479036981753298  0.05847860441670715 -1.635384209563617 0.7890564073384825  -0.09288796492247278 -1.776895055712776 0.8964450456448591  0.1324374208013949 -1.740154341207567 0.986118564730446  -0.009575489072091548 -1.617249486168673 0.9571482141593423  -0.6718703587604271 -1.320072553559192 0.8575418668994165  -0.5993126127839257 -1.356802348095724 0.6761588653802199  -0.4885368719095629 -1.522611456942864 0.7980099206754848  -0.6642002395853364 -1.53019528127371 0.8484425793006412  -1.347483233307303 -1.087645454481238 2.483052248448698  -1.315018842567617 -1.291419856752447 2.560767184983699  -1.422181847599622 -1.160990289531082 2.634735092565684  -1.516475143018002 -1.289607465825076 2.542358529486077  -0.8251001652178981 -1.341754955445665 1.978839545655016  -0.6485365495989461 -1.39637980403723 1.833471467606679  -0.8384176173539667 -1.507047831788549 1.749875831946662  -0.8203110009119144 -1.283557636393105 1.772613672283883  -0.5164129157473545 -1.043802240947415 2.561351860710089  -0.5689073116343502 -1.242177899357374 2.490002653774851  -0.6458462381125095 -1.087169005002729 2.429546160221308  -0.4413340049799513 -1.105162727096155 2.366417988337487  -0.6325985786302906 -1.000691512080353 1.435962961428577  -0.6385620607484055 -0.9813704613453389 1.184311912669184  -0.5449487143973196 -0.8371469322868641 1.37097890766183  -1.583958822697221 -0.8493217131381886 0  -1.78986369332553 -0.8736814868269832 0  -1.718607851236862 -1.006991790946125 0  -1.635436784085574 -0.8838948531084269 0.1380339691310889  0.1612768940456873 -1.843121553365599 0.6329767247591898  0.2323643568494465 -1.692975143374786 0.6788863215179193  0.09019159251338676 -1.814846431498812 0.7874191420707383  -1.062875273255093 -1.041734491791032 3  -1.149158433182131 -1.123891913853887 2.84628912716352  -1.22723992874986 -1.16667122815588 3  -1.353906481047281 -0.9562607626050281 3  -0.679405441789232 -1.568315481607184 0.5630017862190446  -0.5252330889878697 -1.681506118744993 0.7151578821151351  -1.72363009724658 -0.1348091001771507 0.5545258578268655  -1.797193668724998 -0.2979628471163895 0.5603174389822393  -1.81648188723064 -0.2301375970373472 0.3957210031768225  -1.624076625041444 -0.2674508736597376 0.4951081039930677  -0.4505339963759049 -1.136062123960504 0  -0.2628963043456014 -1.141552170835296 0  -0.2957500397643542 -0.9502504888514549 0  -0.3325365835252213 -1.102674272080705 0.161111459294378  0.07392409829766156 -1.533360139686574 1.112281588425232  -0.02283063315156583 -1.400432185307159 1.004321020445237  -0.1362865928384046 -1.641928774582573 1.096603511946072  -0.9783293069445533 -0.7280179034944041 0.6349200516802542  -0.8397985526128185 -0.8160336360580563 0.7159912773122544  -0.7558903300160582 -0.6476638549470957 0.7776382394816339  -0.9552839560063663 -0.6148326024924811 0.7866050681971313  -0.8312527710116606 -0.7950556786435286 1.614402977634044  -0.9567210600125093 -0.9083978297451267 1.559541666789219  -0.7374791760733863 -0.9444661005085463 1.592459028144027  -0.8554330709571225 -0.9532474748129753 1.713382343025166  0.03189110509108385 -1.996859000304968 0.9722931375524642  -0.02983374763045761 -1.826244193496462 1.0936803244594  -1.209136678172795 -0.9673550161139013 2.787530026726432  -1.190515328171598 -1.199052457809579 2.690743886222148  -1.35035361650437 -1.214443577846358 2.804019152025864  -0.7001748021500218 -1.482932690404752 0.1635750635028124  -0.8185894941766394 -1.497594274145396 0.2876739778311772  -0.6556107695904007 -1.643374648037044 0.2072782338244747  -0.6536551300300013 -1.464975431351753 0.3946016317744342  -1.188626215057305 -0.6678863386982073 2.260530493395142  -1.302130131715044 -0.7754651968140814 2.151030516720286  -1.178065815704672 -0.6867032224063137 2.075278134217612  -1.086904284987494 -0.8031289753215809 2.159798459809342  -1.351422820500625 0.1063100112287926 1.189334301493454  -1.178162186580882 -0.06245970049956852 1.166118451046216  -1.396668682892864 -0.07790043001489796 1.340106727750888  -1.407040394721853 -0.06821356289348557 1.058352069243803  -0.6308648392144403 -1.611799141363271 3  -0.6190052350988863 -1.715734505007137 2.873901236519374  -0.5145041229697831 -1.720501851159976 3  -0.6433183351055514 -1.884782081723357 3  -1.776681201989305 -0.4405983493601064 0.1476118125809028  -1.943744663876454 -0.4489447508885582 0  -1.899865532971823 -0.5935948600732998 0  -1.921805098424139 -0.5212698054809289 0.2106616403406252  -1.016487163215495 -1.122472049214823 0.9170454011212578  -1.109465023844576 -1.3319421737436 0.7691107624768749  -1.002490522110291 -1.292083003266677 0.8969244437809218  -1.157390097995732 -1.2140477417495 0.9063032754730388  -1.320947274837734 -1.303593366550305 0.1428791356157304  -1.493247244686353 -1.317910741834191 0.2651337348593049  -1.450173899081334 -1.370395765312775 0  -1.399501622847386 -1.426287339113798 0.1889978063845443  -1.743652414828189 -0.4339339716128558 0.4348517694049172  -1.023217720353762 -0.7978479614202501 1.277322926130972  -1.258665345745631 -0.7322264208807134 1.416889982378491  -1.198820147078001 -0.6876839471546166 1.223729077405624  -1.239599628650163 -0.8530475281074161 1.293216684202827  -1.284360347765359 -1.021304323620372 1.407566253913275  -1.449142381164504 -1.060033380216528 1.438409334911428  -1.403787441835937 -1.220513607130712 1.510232502285107  -1.361896582599512 -1.023933137475477 1.586265036994648  -0.6360031023720683 -1.349426266796207 2.357344122588816  -0.7457176682666045 
[...]
<PointData  Vectors="f_18"> 
<DataArray  type="Float64"  Name="f_18"  NumberOfComponents="3" format="ascii">-2.0799599178743831e-02 -1.6228687154309681e-03 7.1966987772743790e-03  -1.9130099255715238e-02 -4.3408169707990158e-03 6.9514519698521552e-03  -1.9572309248888940e-02 -3.7167210019580683e-03 8.4405545301146287e-03  -2.0417061078172764e-02 -5.4927792105544191e-03 7.4442860137973483e-03  -2.0611464549986729e-02 -1.8256858537345880e-02 6.5328637988367616e-04  -1.7903768230904969e-02 -1.7752058293051293e-02 8.6217453113058694e-04  -1.9592494911491395e-02 -1.8994767026889819e-02 2.5577180384170920e-03  -1.6664669924815571e-02 -2.0725428214352203e-02 1.4687807558449711e-03  -1.4043541845866050e-02 -2.4216112971181977e-02 1.0867400162118523e-02  -1.1683386017641868e-02 -2.1310791784959787e-02 8.7733058839254644e-03  -1.0536945226335826e-02 -2.6141438976270130e-02 1.0245520287082010e-02  -1.4287355874655416e-02 -2.4991755882555613e-02 9.4188365849574643e-03  -2.2040321529860962e-02 -2.0814399648486901e-03 -5.7790657182886611e-03  -2.0651533707552166e-02 -4.7597546978912940e-03 -6.0344608388863989e-03  -2.2000053227098023e-02 -3.5631012323841340e-03 -4.9321126727740888e-03  -2.2047204034382557e-02 -6.0058270210639232e-03 -5.2276958994186794e-03  -2.1272320599745074e-02 -1.6081362651353304e-03 -4.3246428260556056e-04  -2.2961273089764950e-02 -2.2806728001465233e-03 5.9070413851910195e-04  -2.1974048443603972e-02 7.5780963715835835e-05 -5.2868867807871170e-04  -2.3049130781333700e-02 -1.1115843068541667e-03 -8.8871081672246366e-04  -1.8504289050659119e-02 -3.7181350487645801e-03 5.6651168007113327e-03  -1.8389349950900292e-02 -5.9378198340351079e-03 6.2274259488274220e-03  -1.9969488968215182e-02 -3.6236085604928786e-03 6.2236909135116219e-03  2.2045861738376627e-03 -2.7609295153432870e-02 1.1281268134473259e-02  -3.8670861817478863e-04 -2.4700161285650508e-02 9.9518226746885072e-03  1.9736284904983909e-03 -2.8424362480501515e-02 9.9453033607210025e-03  -2.0714487153893776e-03 -2.8585454462763060e-02 9.7220403544121623e-03  -2.0027100111674849e-02 6.3791361238051808e-04 4.4169416912079908e-03  -1.9247514977144203e-02 8.4319220672490454e-04 3.6799601368473411e-03  -2.0583518306892954e-02 -5.0058665376815660e-04 3.8537062151109249e-03  -2.0948083661297575e-02 1.7357916435696225e-03 3.2040916888241241e-03  -2.2275851074695034e-02 -5.2311499282591423e-03 4.2606795481872533e-03  -2.0409872179382033e-02 -4.8433990831742019e-03 4.7439447951267907e-03  -2.0006118364762942e-02 -5.2846550147047896e-03 3.6204091437612640e-03  -2.0794829294894946e-02 -2.8301417297333879e-03 3.7629860359493974e-03  -1.9965081829808232e-02 -3.7177633203570220e-03 -3.5327066498439578e-03  -1.8506903627431810e-02 -5.1054968333721189e-03 -3.7866634934365186e-03  -2.0662772250924919e-02 -4.2885085382711246e-03 -4.2697834713015630e-03  -1.9418214768187447e-02 -4.6264902058724003e-03 -4.9803022651575789e-03  -6.9592574133090978e-03 -2.6407573133414308e-02 -5.6057490812073578e-03  -1.3523606048645925e-02 -2.4240905601104985e-02 -5.0456765941246364e-03  -9.3323211676484014e-03 -2.8375751473961548e-02 -6.9285624986079285e-03  -1.2244782792201590e-02 -2.7491114422503137e-02 -5.0859082919860977e-03  -8.5254356924285889e-04 -2.1111701908825060e-02 5.6333355884762536e-03  -1.3081954190738061e-03 -2.1284080683653055e-02 4.4895190841756230e-03  8.6814786169682619e-04 -2.2632308858093558e-02 5.0086667242882441e-03  -2.5844793888918694e-03 -2.2432439373419037e-02 5.7621432590745448e-03  -5.1612950524154389e-03 -2.0557662440909636e-02 6.3921313140787310e-04  -7.0831381436552198e-03 -1.9795669331884799e-02 -3.0530569824108720e-04  -7.2314161684632876e-03 -2.0928641593229755e-02 4.7061738623133034e-04  -7.6898451333845264e-03 -1.9594239421893294e-02 5.2313660620946576e-04  -1.9791730951914926e-02 5.2913631743234263e-05 7.0277752427774492e-03  -2.0471875802059954e-02 -1.6492621467860042e-03 5.9111491233178786e-03  -2.0899328150996866e-02 5.1492974843143642e-04 6.1928261647581553e-03  -4.5530626483919461e-03 -2.1215499559562527e-02 -1.9260922776245155e-03  -4.2802256453482309e-03 -2.2331708477826014e-02 -6.6029954399716875e-04  -2.7551401267007468e-03 -2.1238630539420406e-02 -1.0518767218576064e-03  -5.6915621071141108e-03 -2.1524014027777927e-02 -1.2788228514941454e-03  -2.3419366116790560e-02 -1.1058874260773351e-02 8.7805686732562328e-03  -2.5102069366533905e-02 -8.7570077739894739e-03 7.3166006846506881e-03  -2.7048068731892576e-02 -9.0566885835112743e-03 9.8618027290755667e-03  -2.4815099332634812e-02 -5.0278289605670667e-03 7.7292069822744013e-03  -1.6412655006912691e-02 -1.1566061859598699e-02 1.0952573035176070e-03  -1.5297998020278668e-02 -1.2964188620599504e-02 1.4647880512482728e-03  -1.6163715477490501e-02 -1.3506716666292259e-02 1.0125682517388480e-03  -1.5346110350335077e-02 -1.3079002872821419e-02 5.7201371399082394e-04  -1.9093750591874861e-02 1.0303431910460908e-03 5.9557363839981229e-03  -1.7867463355598273e-02 2.0596632241444627e-03 5.5577122157394361e-03  -1.7761090784005149e-02 8.0148620441787815e-04 5.7359469653681496e-03  -1.8443473276105835e-02 8.4781057438888102e-04 4.9408560181518424e-03  -1.8507549579263181e-02 -1.0637599374282242e-02 -1.8135974555632406e-04  -1.6847111242854460e-02 -1.1061342577389719e-02 -5.8108992516508985e-04  -1.8160240868203469e-02 -1.0607919919227944e-02 -1.0065568090602667e-03  -1.7257193058272828e-02 -1.0408970285885038e-02 1.5317782338134824e-04  7.5859858915364642e-04 -2.1810973584812550e-02 3.9824122924102682e-03  -1.1590168983877849e-03 -2.0943467603535711e-02 3.0908583224681604e-03  1.5713261686035528e-03 -2.1310217624655511e-02 2.6933681094363547e-03  -1.8417659383708620e-04 -2.2259492584368296e-02 3.0741011967566419e-03  -1.0612140366706291e-02 -2.0783108436201125e-02 4.0222790106220789e-03  -9.3472738921355335e-03 -2.0956293995804752e-02 5.0286277329983841e-03  -6.7926989403747466e-03 -2.1101074936024325e-02 4.0166671926747475e-03  -8.6767291844578841e-03 -1.9906244379248053e-02 3.6093977757096106e-03  -1.5967506194709446e-02 -1.2856270668687778e-02 -5.0428198652351696e-03  -1.3906319323267548e-02 -1.3656586369825004e-02 -5.0395906476542020e-03  -1.4943891579905461e-02 -1.2169580044060995e-02 -5.4029256478784855e-03  -1.4256268735138567e-02 -1.2111531476943296e-02 -4.5426664875004054e-03  -1.1945701336950939e-02 -1.9291118370745042e-02 -2.8321862416309201e-03  -9.8009931537985182e-03 -2.1065098467266792e-02 -2.0268657139778622e-03  -1.0629442346874962e-02 -1.8986202611636856e-02 -1.3186055933776593e-03  -1.2634679533078438e-02 -1.9626278172809049e-02 -1.6281089554366290e-03  -1.1564186571468292e-02 -2.3374296921485058e-02 -8.1264638313160026e-03  -9.8538536369031596e-03 -2.1572349338842729e-02 -6.3951857116513796e-03  -1.2790230923639683e-02 -2.1627720109412781e-02 -6.5586199807778408e-03  -9.6679502639049637e-03 -2.4567819223309299e-02 -6.4986179060607342e-03  -1.4655077070357271e-02 -2.3061016848135031e-02 5.4443975426543437e-04  -1.4973144903986244e-02 -2.3015722014983756e-02 2.4430475790378292e-03  -1.6617681290269821e-02 -2.5623755015894433e-02 1.1653785230844784e-03  -1.5850076986688926e-02 -8.4582398378549341e-03 7.1901708280804298e-03  -1.5370058989840427e-02 -7.4445193854861856e-03 6.5112468460064637e-03  -1.4741833463737008e-02 -8.6087706645672623e-03 6.4885904554967131e-03  -1.6022128227447523e-02 -8.6175725700561728e-03 6.3575960360346571e-03  1.6934797976070318e-03 -1.9915474140205905e-02 4.1973615542611337e-03  2.7958623240211494e-03 -2.0863279989608904e-02 4.3379015266449437e-03  9.6596888586970853e-04 -2.0516603300337458e-02 3.5440781133710885e-03  -1.4318451455231408e-02 -1.4028889568235212e-02 -8.4474186532449754e-03  -1.4257081840939524e-02 -1.3958703516442269e-02 -7.1486478862025828e-03  -1.3503089688617399e-02 -1.2847532173833196e-02 -7.5017735375498351e-03  -1.5393002754560113e-02 -1.0884227967329133e-02 -7.6597924616965208e-03  -8.2834502714982904e-03 -1.9069868187904838e-02 4.9144031432388716e-03  -6.2134057935975835e-03 -1.9763164787476969e-02 4.0537079551395544e-03  -2.0518451647873786e-02 -1.5705651080303547e-03 4.9720275026377426e-03  -1.9748215326107779e-02 -3.2198663460375758e-03 4.6673854278836734e-03  -1.9249997901906457e-02 -2.4039385090419813e-03 5.3313926246610502e-03  -2.0760940414873710e-02 -3.3936466265526237e-03 5.4516932334150335e-03  -8.4211723638165457e-03 -2.1090217426655025e-02 1.0572454611284121e-02  -5.2699138496968114e-03 -2.2691528071041012e-02 1.1086449153941372e-02  -7.7025660991065807e-03 -2.4680234223817717e-02 1.3128894786136547e-02  -7.1964812302230561e-03 -2.3800121890389540e-02 1.0191949144818564e-02  1.0650080243572990e-03 -2.3113008519353918e-02 2.3133738221032219e-03  -3.9779529017819988e-04 -2.4316979852755896e-02 3.2980970302215373e-03  -1.8417353418340890e-03 -2.2100083039438809e-02 2.2534184086203976e-03  -2.0815180149386568e-02 -1.5505194776925635e-02 6.4554864580052655e-03  -1.9224321227891167e-02 -1.8638404293872524e-02 6.0371425253313822e-03  -2.2793733926202490e-02 -1.9459528789641266e-02 6.3292269462832682e-03  -2.2995695007298256e-02 -1.4905360368711195e-02 5.6881448018969751e-03  -2.0221654163828401e-02 -1.9391128307637888e-02 -8.4547335583729281e-04  -1.8563642145507618e-02 -1.7550672343901483e-02 -3.5465325904090306e-04  -1.6756762031637135e-02 -2.1503877470117266e-02 -6.6712549384184445e-04  -1.7320807327475159e-02 -1.9440007681111260e-02 -1.4542996326057192e-03  2.6178261966335221e-04 -1.9832572884285655e-02 2.3916771510709015e-03  -3.5361800346784351e-04 -2.0914435966303106e-02 2.0483292161105606e-03  -1.6149490245016239e-02 -1.2957030679851185e-02 -7.1398481826567195e-03  -1.4114857002337111e-02 -1.4218213617676551e-02 -6.1436081604799991e-03  -1.3927306179783839e-02 -1.2559532241044233e-02 -6.2139908455081010e-03  -8.4887092469952668e-03 -1.7829517285020080e-02 6.9412932088373739e-03  -9.5254268984881520e-03 -1.7394950991823595e-02 6.2246510119728449e-03  -7.1412004996592440e-03 -1.7701314898022284e-02 6.2658991847609662e-03  -8.6012437253204805e-03 -1.9174146283732318e-02 6.0598337968685067e-03  -2.1214204937847096e-02 -1.1919926691748208e-02 -5.0268486849036273e-03  -1.9805307065948480e-02 -1.1773567663406171e-02 -3.9022719022373626e-03  -2.1332360169351985e-02 -1.2479270066900701e-02 -3.8640339950650996e-03  -1.9860636112025952e-02 -1.4678883143461186e-02 -4.4183859863732152e-03  -2.4936118024613870e-02 1.9789499187620541e-03 2.1490304043899088e-03  -2.7229543134543649e-02 -1.4740113668597896e-03 2.6466316700325004e-03  -2.4593124830967754e-02 -1.3258673497776739e-03 1.0807455679338466e-03  -2.4273164183967036e-02 -1.2304754851699723e-03 2.9580864271594237e-03  -6.7774175273232051e-03 -1.7215023039463550e-02 -7.3546097354795338e-03  -6.2744319219681143e-03 -1.7328593386883358e-02 -6.4692617664908383e-03  -5.2063042594954149e-03 -1.7349172588227390e-02 -7.1145602808539987e-03  -5.6038820787184078e-03 -1.6222778845604691e-02 -6.4754417831719103e-03  -1.7913215204095081e-02 -4.4180106432631381e-03 6.4081266573232515e-03  -1.6660889513138041e-02 -3.8081817145902883e-03 6.4667657785636139e-03  -1.6348606405983616e-02 -5.0856456165270731e-03 6.5412612394178038e-03  -1.7242283027445258e-02 -4.6530667126809498e-03 5.6088789299824152e-03  -1.5539140988735510e-02 -1.7091987164252132e-02 3.6220787556509484e-03  -1.3479471493626534e-02 -1.6162678799135487e-02 3.8833225339451201e-03  -1.3503735225372586e-02 -1.7400044053417992e-02 3.4580813419769524e-03  -1.5001562790939222e-02 -1.5668713564726832e-02 3.3086113965042161e-03  -1.3050947321534371e-02 -1.2792610332760098e-02 6.3506769817890784e-03  -1.3556887849444857e-02 -1.1944025062833595e-02 5.3745193001065259e-03  -1.2414856205353288e-02 -1.1670665923421667e-02 6.4084255812547567e-03  -1.2462680497895229e-02 -1.2636949159314573e-02 5.6455219312195734e-03  -1.9188436542576414e-02 -4.7509201675670232e-03 5.2994675615215979e-03  -2.0354548646876761e-02 -1.5911089836193371e-02 1.6222757370076472e-03  -2.0747195882870283e-02 -1.2124250735863280e-02 5.7065928003649361e-04  -2.1411053377116671e-02 -1.2333923122167747e-02 1.9272247115815642e-03  -1.9395039482753781e-02 -1.3357723281636102e-02 1.3652116583231923e-03  -1.7569995143704074e-02 -1.3994615827648799e-02 5.7067436843458944e-04  -1.7217256951046658e-02 -1.2596672327838846e-02 3.4704238161048701e-04  -1.5829021667045255e-02 -1.3704327479775324e-02 -1.1394204624799948e-05  -1.7565664037387008e-02 -1.3198173527564963e-02 -4.4303678549854799e-04  -9.7245583533819725e-03 -2.0661897566054910e-02 -5.1349837136671515e-03  -9.2662798072178278e-03 -1.9121522684312480e-02 -3.6995231258963295e-03  -9.5090368942160955e-03 -1.9129155021832753e-02 -4.6377386947293181e-03  -1.1957823997124681e-02 -1.9572250048244925e-02 -4.1945653665663753e-03  -2.2653828679328573e-03 -2.4659384871874215e-02 -3.7348433701987673e-03  -1.4667125518832160e-03 -2.2345057229622607e-02 -2.6688295085767616e-03  -3.5313472069090791e-03 -2.3079159472979602e-02 -3.0795473467414725e-03  -9.2973637609809257e-04 -2.4331223217092041e-02 -2.7066891834794716e-03  -7.2202733801366402e-04 -2.2125566996284006e-02 -1.6054798174553269e-03  -1.9764187240921757e-03 -2.2469867048625972e-02 -8.9788971033626997e-04  -5.6402496074105094e-04 -2.1166796448621874e-02 -9.1800113476563755e-04  -2.3723782251773920e-02 2.0193263114838518e-03 3.0045572638670126e-03  -2.6139687921808354e-02 4.1250217871102767e-04 3.7727742551105876e-03  -1.6907520591236336e-02 -1.4394604495929360e-02 4.8903211706165231e-03  -1.6782718735112261e-02 -1.5150466697931519e-02 6.2735396059737910e-03  -1.6668257874921287e-02 -1.3150240366150843e-02 5.8926634240738700e-03  -1.8574921961311788e-02 -1.2446226384874640e-02 5.8785127926396759e-03  -1.9922437602083530e-02 -2.9921272988277462e-03 -4.6095677203207883e-05  -2.0142156938419333e-02 -1.6384005529339397e-03 -4.0816177222030955e-04  -1.9947394334371937e-02 -2.9022807551005092e-03 -8.4839104756754494e-04  -1.8786457079755813e-02 -5.9489532202650413e-03 2.8269428862756660e-03  -1.9425012399141336e-02 -7.5800627866162698e-03 3.3455108758846416e-03  -1.9993386934533598e-02 -6.4735502764307201e-03 2.5044493599480893e-03  -8.4574600151733435e-03 -2.0904289239290531e-02 6.0268225051629699e-03  -7.8444899234229783e-03 -2.3526559825113928e-02 6.7951355580480391e-03  -1.0422407727036467e-02 -2.1703087910546363e-02 6.3823010893529972e-03  -2.3806929698377183e-02 -4.1781712595181193e-03 6.0110555716912702e-03  -2.2127167276884820e-02 -3.5768199830303613e-03 6.2621050312235034e-03  -2.5197197201441614e-02 -1.1128504052657429e-03 6.7145741670600109e-03  -2.3395202742777163e-02 -1.8155448514331400e-03 7.8714453681051344e-03  -2.0092014285090186e-02 -1.1010689700351406e-02 3.8376697810083051e-03  -1.8208713225999734e-02 -1.1033554181091115e-02 4.0437873371310992e-03  -1.7522178387804132e-02 -1.2264408030427122e-02 2.6244764298453565e-03  -1.8375066331416938e-02 -9.7999778146426915e-03 2.9432162408982911e-03  -1.8383286196500596e-02 -1.1243805107371132e-02 1.3360868494289779e-03  -1.7058776470447859e-02 -1.4070914743565421e-02 1.4820650141416534e-03  -1.9443538007212491e-02 -1.1448932894549133e-02 7.3802489543941890e-04  -2.1104690405341412e-02 -1.0032779333105422e-02 1.6173826622337805e-03  -2.0538958417434052e-02 -8.2056797085214694e-03 1.3966381265765370e-03  -1.9195140911666877e-02 -1.0937692329874116e-02 2.3300652327705928e-03  -4.9337102433685571e-03 -2.4369893055666884e-02 -2.4191625946893783e-03  -6.5648463109306337e-03 -2.2544933179974341e-02 -1.8610481316493743e-03  -4.5304000744473974e-03 -2.4104141809562264e-02 -1.1463049501240551e-03  -2.9162329289432343e-03 -2.3304213685608755e-02 -1.7010718143395773e-03  -1.4354517558032968e-02 -1.1727595603914115e-02 6.2971513707540004e-03  -1.3289053628884252e-02 -1.0725345421444826e-02 6.5003290545949033e-03  -1.4385654281274522e-02 -1.0706458602716165e-02 5.4895500217346030e-03  -1.4219265561994408e-02 -1.6627282529073556e-02 2.5614539663647612e-03  -1.5579719278613657e-02 -1.4247011673802722e-02 2.6075564505035316e-03  -1.5603886193680120e-02 -1.6150717782935940e-02 1.8073771896521043e-03  -3.0683330142267738e-03 -2.0783407622666002e-02 2.4805280834710752e-03  -4.9920738765528039e-03 -2.1008104222302634e-02 3.1962700851139105e-03  -2.6454590726386878e-03 -2.2527492007368564e-02 3.7278569224051383e-03  -1.8305427496226066e-02 -2.5812110246888026e-03 6.3534132709255524e-03  -1.0070240408453304e-02 -1.7493514486945822e-02 7.0845696290121102e-04  -9.7627937440418026e-03 -1.8581463551621845e-02 4.1153880199133161e-04  -1.1839593714721220e-02 -1.7418090626491876e-02 3.4675734335117974e-04  -1.0137616426902514e-02 -1.7434517814073316e-02 3.8903351177302824e-05  -2.0922662818826682e-02 -2.6440846632484693e-03 2.5263454138304197e-03  -1.9490380812703136e-02 -3.6656349872479978e-03 2.2802320296447342e-03  -1.9834283828665408e-02 -3.2397609952140019e-03 1.5325319730214882e-03  -1.9776664449051466e-02 -1.7849444963684649e-03 2.4577796537375066e-03  -2.1791862274835552e-02 -6.4229918321808983e-03 -1.0498505655189443e-02  -2.3011257847460630e-02 -7.9731889336695210e-03 -9.3822277843961764e-03  -2.1228251832662377e-02 -9.7516357425821119e-03 -1.1125467367705281e-02  -1.9682600697641758e-02 -9.0138096142301678e-03 -9.7278280662791081e-03  -7.5099161106407068e-03 -2.3196198059028922e-02 -7.6328760902275540e-03  -9.9398183659099183e-03 -2.1390836340330250e-02 -7.7698185672228359e-03  -7.8194733212595090e-03 -2.0780797968727473e-02 -6.6832840888014829e-03  -6.8167178186111475e-03 -2.0667735639101310e-02 -7.7041055201582291e-03  -2.2570059320640504e-02 -2.0312324477705944e-02 3.5710905947640694e-03  -2.0313370749275798e-02 -1.7850008568399561e-02 4.7531188284951438e-03  -2.1846027823046805e-02 -1.4856411382326554e-02 3.4903430410177078e-03  -2.5228153788056363e-02 -1.6456143870564013e-02 5.1405359870029602e-03  -1.2152843021737763e-02 -2.1358434516699297e-02 -2.6184084577947947e-03  -1.4484297780213999e-02 -1.7911419059839354e-02 -2.0762132218213815e-03  -1.5033849628288040e-02 -1.8094045757148864e-02 -3.2217038107415830e-03  -2.1668362394438510e-02 -1.3277192303429426e-02 -1.6797509899571562e-03  -2.2984927302476213e-02 -9.9769804199372498e-03 -1.7899307488130061e-03  -2.4557671316365888e-02 -1.0310738386375261e-02 -9.4728457052530469e-04  -2.0904405672817629e-02 -1.2779839431176295e-02 -5.3289846442054441e-04  -2.6954047311541229e-02 -6.7895758914594112e-04 -3.8128997867288518e-04  -2.6274869578135497e-02 7.5724372571436187e-04 1.2735193195292499e-03  -2.5090810241825415e-02 -3.9582587074608235e-03 5.3136426867076195e-04  -1.5570691465138068e-02 -1.6231921459456018e-02 -1.4568006342920571e-03  -1.6060163258534297e-02 -1.8025650550784162e-02 -1.2631132769022075e-03  -1.7114440893385773e-02 -1.6212044734379143e-02 -2.2085953024619616e-03  -5.6385862657382857e-03 -2.2128244092744848e-02 4.9176546857065294e-03  -3.4635182919878571e-03 -2.1603544320336680e-02 4.4001527137785146e-03  -4.1838566582047326e-03 -2.0146012757039627e-02 4.8854649576096486e-03  -1.6788324673992536e-02 -1.4310404225625377e-02 -4.4985379604094876e-03  -1.6712610774647769e-02 -1.3457016444282072e-02 -6.1537686495138147e-03  -1.6237695373964557e-02 -1.5558206391761222e-02 -5.6273680104088749e-03  1.6433755667037372e-03 -2.5213233858568510e-02 7.7245031678483999e-03  1.2765827137091533e-03 -2.9241961945693045e-02 8.3227218605538885e-03  -1.4660711944375461e-02 -1.2233598070551599e-02 -3.9854271850162069e-03  -1.4100446351795869e-02 -1.3128375496813997e-02 -3.6265738926726286e-03  -1.5452723445908992e-02 -1.3843841500051367e-02 -3.8971058681636474e-03  -1.3895582176376807e-02 -1.4437637253759378e-02 -4.0545193520088911e-03  -5.1016044586445260e-03 -2.0440067545755478e-02 -3.0557401915366020e-03  -6.0884041571196007e-03 -2.0091178225454209e-02 -2.1419311317185325e-03  -4.9212594568628313e-03 -1.8977780270135320e-02 -2.8863168892236794e-03  -6.7822403240270241e-03 -1.8461225498603295e-02 -2.8783400873495018e-03  -2.0476926875594381e-02 -5.9945987593159351e-03 -9.3909324977350817e-03  -1.9712928343