<?xml version="1.0"?>
<VTKFile type="UnstructuredGrid"  version="0.1"  >
<UnstructuredGrid>
<Piece  NumberOfPoints="187" NumberOfCells="657">
<Points>
<DataArray  type="Float64"  NumberOfComponents="3"  format="ascii">0.7119454820819836 -1.311017197308812 0.7850254167931945  0.6711564508304207 -1.401253329984251 0.5622240771778685  0.7873485614796214 -1.551119900712338 0.747618612172079  0.509899363520301 -1.411274404689723 0.7930410904030668  1.571223386396861 -1.222896538248188 0.681768998400601  1.365943112648017 -1.134934275590741 0.4914509233146168  1.447765498390705 -1.373330410045335 0.7315215413413203  1.404410164647943 -1.149349917793486 0.7975908961567035  0.803830552736335 -1.241808787336111 1  1.027552987385453 -1.122421832866236 0.7520124683793958  0.9317589561501367 -1.126789045658179 1  0.9466024263613499 -1.337784875385508 1  1.015601792777485 -0.8204518079745813 0.6525547521204649  1.304637174418844 -0.7075626243921807 0.5186954339142219  1.054700059797406 -0.6058616406515142 0.4895215437898623  1.110028565937067 -0.5800778232130865 0.7539770568553924  0.9065780864506976 -0.7643401139982925 0.8193321493755804  0.8427521110205465 -0.5344621625620394 0.6951122958534079  0.8874756245502677 -0.4507903538350485 1  0.6565945984642327 -0.7485610582252132 1  0.7260749200787838 -0.683994037072515 0.7575866569922562  0.7862467646240011 -0.6106744323530362 1  0.4437787684872145 -1.472384709319954 1  0.3808210433871149 -1.763882641155164 0.817384939724187  0.5886194165627399 -1.607799173493189 1  0.2828443174131989 -1.737656437702833 1  0.8427521110205465 -0.5344621625620393 0.304887704146592  0.9275246612083398 -0.3706670534361827 0.2407973732256985  0.9290934823066148 -0.3654953433663091 0.5  1.254380730905587 -0.8083467088102502 0  1.452879240810067 -0.9256401028442123 0  1.469388374880087 -1.034040776775462 0.1882486755660968  1.347617246490652 -1.061163179822044 0  0.5031802934273266 -0.8594726184264059 0  0.7805047611923689 -0.9061187185566575 0.2197836778390664  0.6565945984642327 -0.7485610582252132 0  0.5790946986177532 -0.8121635823205643 0.2406591020066253  0.8638068359660822 -1.218302366084752 0  0.9324225297118618 -1.069640369270793 0.223104162955864  0.7932047642417024 -1.26389931307753 0.1963766327108795  1.030433715894798 -1.231858392111446 0  0.9080933109673303 -1.392933173756074 0.3219887364722751  0.818663626867002 -1.250496447075703 0.4758235842672084  0.5790946986177532 -0.8121635823205644 0.7593408979933747  0.7288306932309858 -0.9486137962695518 0.8304626122976658  0.7999786526575325 -0.8565217994501219 0.6452470139574003  1.157231385552274 -1.253901033215793 0.281726668262764  1.224429837858597 -1.367445394691974 0.1621926997827459  1.177855468001781 -1.310694360819405 0  1.636952961386825 -1.142804819387519 0  0.7464136245425157 -0.6592112539775661 0.464253437432927  0.9590515939106158 -1.078423956001888 0  1.189271625505363 -1.127293779066439 0  0.7450638420349176 -1.620742934143578 1  0.9598730660345802 -1.549077209085725 0.8242980760773153  0.8995443726527385 -1.515344433769769 1  0.9253516653358499 -1.762245407515976 1  1.29264339957742 -0.7108631639275693 0.248925098563288  1.064679695988678 -0.6749731916823414 0  1.119003905466543 -0.9695779869373969 0.2100492968754825  1.576997441744635 -1.215860831449986 0.4767686081794522  1.687870562227536 -1.064497214017714 0.3121204132896461  1.577555788316497 -1.215180484183672 0.2425537263387976  0.4566179955496571 -1.609390190456626 0.6989686505589768  0.4780196499422931 -1.718624147876173 0.4860276821231871  0.4598397724961487 -1.407027747603131 0.4646693967668116  0.6555930567863257 -1.664756582497279 0.5960201095882456  1.080685194586458 -1.202250007878773 1  0.580573651550607 -1.903815473393742 1  0.5734276495182083 -1.711685493650841 0.8245233371918688  0.9720734413444984 -1.373627274294348 0.6790269542916713  0.7381014911438812 -1.022860552606942 0  0.5649892703019659 -1.018153738993141 0.2065824908697158  0.6859686601772466 -1.136244635014237 0.3299139575879882  1.059531587242102 -0.5973251627738123 0.226746809598138  1.023435757713041 -0.8146736758415731 0.3189846134813204  1.297544141558148 -1.005011241379223 0.3189684790296657  0.5832887714184972 -0.8087215957258024 0.4999999999999999  1.000672008306493 -1.113805047495691 0.487632913986857  1.1929972635708 -0.8536914974626655 0.780931025369012  1.284717519815038 -1.02228507292348 0.6703955176972156  1.20351971211937 -1.239767330590945 0.7939120312707418  1.10743765731954 -1.431746180074469 0.8139666446241006  1.206663380515088 -1.269235118192567 0.5803433203994834  0.5031802934273266 -0.8594726184264059 1  0.7739143362555156 -1.072397343309636 1  1.300974086628094 -1.226302537576867 0  1.338534520264107 -1.194150655990213 0.2011991283607386  1.244666982182433 -1.191554482389109 1  1.176003996493655 -1.33611093172008 1  0.8428253757598037 -1.806356628303072 0.7017027633753112  0.6701703609710061 -1.876636608728933 0.7670361119449685  1.251368316581753 -1.54785720178133 0  1.396119646174059 -1.429062855640675 0  0.9633396945064303 -1.532543348225953 0.504411395532755  1.51815861524617 -1.287556148979825 0  1.496956996248435 -0.92836030672711 0.733478808495897  1.486803694599748 -0.9110561600863133 0.4938031200867036  0.8140359668217003 -0.928879231333442 0.4392990111823438  1.173511336853638 -0.9048826654188855 0.4957352355486239  0.4037512339627746 -1.080144681274499 0.7916997388280334  0.5315656042297237 -1.1447348656588 1  1.639622120442623 -0.7656643535348759 0.5754969080455435  1.647316553768361 -0.730739989356719 0.8042598622939813  1.764178512674736 -0.9217350799576589 0.681768998400603  0.9657215264631963 -0.9093291733414921 0  0.609932068791446 -1.364176709429583 1  1.472680754612366 -0.8169236440154841 0.189840841356636  1.773358286409876 -0.9045609312492104 0.2410240474052892  0.5038238211581905 -1.074271211065006 0.5112063182307277  0.4006956025444619 -1.24843802094553 0.6812500201025888  0.7276110770644739 -1.094877295120382 0.6732896863357209  0.4909769421302074 -1.93099433805855 0.7575947101728453  1.38956983664371 -1.075452775247462 1  1.009197349932888 -1.397681489770207 0  0.5007099757113176 -1.928041854600282 0.3180605671254946  0.6868754821181033 -1.871569165629702 0.2684565302298717  0.6868754821181031 -1.871569165629702 0.4985271366456067  1.374638822880307 -0.7269623812337992 0.7816877154595647  1.596035538136801 -0.6475556862479659 1  1.811898498971423 -0.8324572649841648 1  1.576862202356231 -0.8129917743520412 1  0.6936374543645428 -1.490116486267707 0  0.8025770010134894 -1.582936134930714 0.1789258885538291  1.45886869666133 -1.359801123807276 0.2329044500023627  1.323743981377906 -1.488460028711002 0.2983514543155433  0.7571261393854014 -1.588227948599163 0.4034342435924383  0.5105785823554512 -1.583270420542069 0.3212501110323914  0.8191217493535388 -0.9003543932255844 0  0.9108064832199552 -0.7168879053805575 0.1960696744913284  0.5834852897946156 -1.717308399664762 0.1887386398541893  0.8582612650818593 -1.79810597356713 0.2345944512541738  1.023406865707066 -1.709833810979675 0.3360631755621046  0.9134091603486951 -1.768628809422758 0.5063694337812823  0.617899748202294 -1.653792821188109 0  0.7756884647692561 -1.842242054860857 0  1.500447934349236 -0.9696295598465304 1  1.723626336383968 -0.9976028656093712 1  1.304133313638584 -1.504554087798652 0.6818852646335845  1.382549209024781 -1.440199825591361 1  1.237797879432475 -1.558994171732016 1  1.372150915982795 -0.8905933020381092 1  1.447765498390705 -1.373330410045335 0.5014756417954529  1.731901851626541 -0.9821204655507586 0  1.548728803732611 -0.6572481953988726 0.3158315927164428  1.759877105553066 -0.9297824466678363 0.4766530223320761  0.9182578431128523 -0.8646999765548649 1  1.073201216885297 -1.038090295992939 1  1.183469093176923 -0.8848763635278679 1  1.142512612418792 -0.9516293590046008 0  1.109591404263192 -1.393011847861546 0.4362628689155215  1.215386324078908 -1.577386859880171 0.4184832804743677  1.117097531608276 -0.7081609724092219 1  0.7260749200787839 -0.683994037072515 0.2424133430077437  1.038706690905149 -1.45578038790324 1  1.625815991436139 -1.156375256536797 1  1.507021645295484 -1.301126586129103 1  0.49198228108192 -1.930689371821647 0.5229837268563096  1.165552904605024 -1.618284090316855 0.5914719092900202  1.165552904605024 -1.618284090316855 0.7722986199771491  1.090497265961056 -1.673973244928521 1  1.018251277396346 -1.493874823880694 0.1811641159579966  0.9408340653944625 -1.753969892273402 0  0.7862467646240011 -0.6106744323530362 0  1.105979666019669 -1.665697729685947 0  1.679590237761743 -1.079988611500134 0.5913175450030814  0.6027785381133539 -1.359332156263882 0.2124371689903601  0.5587472371219874 -1.203112900522971 0  1.381951970976821 -0.5634760338254743 1  0.7597670703914065 -1.849457744064124 1  1.679590237761742 -1.079988611500134 0.7722204517981226  0.4999697403346577 -1.076876380065217 0  1.17903341878715 -1.607220918238119 0.2399632141173498  0.2713321621710769 -0.9576575710401055 0.4639489892092016  0.2407869516577543 -0.9669233593494102 0.2422811437659894  0.384799343308686 -1.090040125494568 0.2000785832607395  0.4195556527163921 -0.9041709201262842 0.3048123389795397  0.3315216749971926 -0.9393992819363619 0  0.4195556527163921 -0.9041709201262842 0.6951876610204601  0.3833720884367542 -1.248266169376449 0.3125100964111098  1.016841500351821 -1.713343071873639 0.6818852646335847  0.9275246612083399 -0.3706670534361827 0.7592026267743015  0.3070347646120418 -1.231266475456671 1  0.5973730345669322 -1.89871943626909 0  0.8874756245502677 -0.4507903538350485 0  0.3315216749971926 -0.9393992819363619 1  1.575155775830446 -0.7921739152598291 0  </DataArray>
</Points>
<Cells>
[...]
<PointData  Vectors="f_18"> 
<DataArray  type="Float64"  Name="f_18"  NumberOfComponents="3" format="ascii">4.2255520480627619e-02 -7.7877993043698010e-02 -5.0611702977976228e-03  3.7206978710255356e-02 -7.7500470585754072e-02 -1.3192601796305620e-03  3.6316981087200648e-02 -7.1503997707452957e-02 -4.7955688186164663e-03  2.9901382335508847e-02 -8.2694635576496825e-02 -5.3189108271321749e-03  5.9226183464078715e-02 -4.5509778003659310e-02 -3.8055483151730081e-03  6.1216061873798272e-02 -5.0236907748948463e-02 -1.1098686676116608e-04  5.4412498329815505e-02 -5.1128692300849939e-02 -4.6997824298501897e-03  6.0918615162066050e-02 -4.9257655885448184e-02 -5.7775988396754760e-03  4.8736600034128739e-02 -7.5011026622974292e-02 -8.9301952060515787e-03  5.9143912701518343e-02 -6.4060966194438018e-02 -4.7106254485773571e-03  5.7426345494522704e-02 -6.9188029752119476e-02 -8.9374568156589413e-03  4.8703710155525368e-02 -6.7938940660328351e-02 -9.0960332220337784e-03  7.5601577676416259e-02 -6.0620345385296814e-02 -2.6274072179654140e-03  7.7831341999323470e-02 -4.1649519645593672e-02 -4.3576491284164228e-04  8.8448587647318555e-02 -5.0499448951909783e-02 5.8493276168570492e-05  8.8679143570033162e-02 -4.6059827719493310e-02 -4.3286936647293659e-03  7.9491810744869315e-02 -6.6772734400204231e-02 -5.0553631094634619e-03  1.0000568764125332e-01 -6.3150035817767888e-02 -3.1371100219155547e-03  1.0631287473177463e-01 -5.3607794907634794e-02 -7.4639192786377356e-03  7.8364941937152294e-02 -8.9561564639969754e-02 -7.2266839812460248e-03  8.6283715159605173e-02 -8.1356219963555326e-02 -4.1782608948666509e-03  9.3706007767034680e-02 -7.2514714561875318e-02 -8.2863593569463666e-03  2.5118796037337267e-02 -8.3233235634532179e-02 -8.9067936291710136e-03  1.6506425209347746e-02 -7.6884585539987740e-02 -6.0070916480917695e-03  2.7923987204247103e-02 -7.6422811891310061e-02 -9.2342611552671486e-03  1.2590062605635572e-02 -7.8983550147204776e-02 -9.2642454605092774e-03  9.9979720383274642e-02 -6.3079840227131825e-02 3.0098874158606659e-03  1.0945199129910341e-01 -4.3593271640890011e-02 4.1722960529397965e-03  1.0940524443032830e-01 -4.3042696651084532e-02 8.8359251595398119e-05  7.4290590626301833e-02 -4.7562155177558893e-02 8.4701863358993060e-03  6.8170113718871758e-02 -4.2874324237416349e-02 8.7450257080691467e-03  6.4422817889583928e-02 -4.4871511914861030e-02 5.2807137533262575e-03  6.3623008052035926e-02 -4.9759545903848658e-02 8.6655093401143673e-03  6.0060884589374933e-02 -1.0215666284789510e-01 7.8454050880788408e-03  6.7507307034924746e-02 -7.8084144955851600e-02 4.7134610167295721e-03  7.8646407530399295e-02 -8.9219491814815699e-02 7.6224710391405107e-03  6.8958708373857300e-02 -9.6076889875736232e-02 4.3164403825927252e-03  5.1140777968719436e-02 -7.1829318776975321e-02 8.5191549435594018e-03  6.0072006730684878e-02 -6.8554568892826059e-02 4.6292341096972021e-03  4.6784294629582134e-02 -7.4610944912581398e-02 5.3032531495600449e-03  5.4266214058495611e-02 -6.4396207097241018e-02 8.5932137987289881e-03  4.5005017096836526e-02 -6.8756133277043621e-02 2.9318702205373176e-03  4.8372544797010031e-02 -7.3772334916117260e-02 4.7465088542888843e-04  6.9151052073688796e-02 -9.7341708397055415e-02 -3.8261561889911416e-03  6.3308609062805596e-02 -8.1708632547681542e-02 -5.3734381440111705e-03  7.1411408869375081e-02 -7.6322744718397548e-02 -2.3251618796959971e-03  5.5041658102514469e-02 -5.9264324588462154e-02 3.7072028979211282e-03  5.1983726238554524e-02 -5.7716535575048272e-02 5.8712767805700677e-03  5.3403617535244891e-02 -5.9037040393646517e-02 8.7439296373243731e-03  6.1324622602888429e-02 -4.2187457537901513e-02 8.8114722001350933e-03  8.8823332742699795e-02 -7.7667323444346001e-02 9.5146914305270643e-04  6.0017508468377959e-02 -6.7248026786022791e-02 8.4922356907435256e-03  6.0381342495418835e-02 -5.7079890689632928e-02 8.6139329309822821e-03  3.3217355675665500e-02 -7.2092526122182726e-02 -9.3853944701544605e-03  4.1390241877636340e-02 -6.6428725998580337e-02 -6.1897641331983113e-03  4.1067228186968535e-02 -6.8709630272047420e-02 -9.4559030488628373e-03  3.4828442628937972e-02 -6.6364498514385112e-02 -9.7160392617988665e-03  7.7831234528932230e-02 -4.2503793108486398e-02 4.2127591858427578e-03  8.4243337809702751e-02 -5.2969529654072610e-02 8.0715849095857901e-03  6.7119700818957406e-02 -5.7707866106278941e-02 4.9824056266027858e-03  5.9471400821472155e-02 -4.5052505110488021e-02 -2.0314479808043068e-05  6.3234696537307636e-02 -3.9084720364716087e-02 3.0612636860500976e-03  5.9277771994733490e-02 -4.5066806110443766e-02 4.4464759916093355e-03  2.2340462333716369e-02 -7.8977616980026574e-02 -3.8555072118213159e-03  2.1213462242935754e-02 -7.6119517409500417e-02 5.8444044233210131e-05  2.7471469786723379e-02 -8.4365177504241926e-02 4.1539766806833998e-04  2.8967288228151349e-02 -7.3410860045528811e-02 -1.9865448811554605e-03  5.6456819955727697e-02 -6.2352272437881225e-02 -9.1187953295235585e-03  2.1907550832564543e-02 -7.1796126723119358e-02 -9.7519355335350267e-03  2.4957242467935289e-02 -7.4495824878347536e-02 -6.1842240997893585e-03  4.7344164644034001e-02 -6.6696129430900211e-02 -3.3988457771264710e-03  5.7974442625794431e-02 -8.0509280003945305e-02 8.4137047400027424e-03  5.0893536663136507e-02 -9.2097254853422808e-02 5.0011577756305112e-03  4.9591818470865377e-02 -8.1743906255174262e-02 2.8211249661006382e-03  8.9148309050785787e-02 -4.9673268708827503e-02 4.5172401605484622e-03  7.5435028982684338e-02 -5.9866892480295975e-02 2.8568630118353464e-03  6.5739406745457862e-02 -5.0346803561726536e-02 2.9821635058837150e-03  6.8469687502075591e-02 -9.5779683493480317e-02 2.5141950774371736e-04  5.8893451679885238e-02 -6.5246365189493963e-02 2.2700339761063701e-05  7.2792852367056335e-02 -5.1739685886881201e-02 -5.0986419664355090e-03  6.5078897880560718e-02 -5.1304070035970234e-02 -3.2495546279267154e-03  5.6379035536233850e-02 -5.7600945542280138e-02 -5.5479957443825521e-03  4.8213953780481093e-02 -6.1944534577507343e-02 -6.0719709837826581e-03  5.5229995456199707e-02 -5.7626146319313419e-02 -1.6656709090887877e-03  6.0379406213130746e-02 -1.0313644683470424e-01 -6.7088408713712987e-03  5.6538357064482340e-02 -7.8021938229356699e-02 -8.4631384130391691e-03  5.7606534941927162e-02 -5.3870185302950499e-02 8.8015725185360463e-03  5.8883103172563761e-02 -5.2078167471811911e-02 5.1235030261037873e-03  5.8669636245239215e-02 -5.5872174641741948e-02 -9.1862896290311191e-03  5.2792291403841583e-02 -5.9505737641592477e-02 -9.3569540976188234e-03  3.1512545370748338e-02 -6.7373441826777930e-02 -4.1411730104051218e-03  2.5126218698775748e-02 -7.0236164121146555e-02 -5.3140941810629243e-03  4.7073539720383688e-02 -5.7963342201060468e-02 8.9641895963532715e-03  5.2223228142291883e-02 -5.3019339373608754e-02 8.8033387219472511e-03  4.1930280364725160e-02 -6.6183001234953451e-02 -4.0709808964371725e-04  5.7109254225449449e-02 -4.7939238400165576e-02 8.9345933520281039e-03  6.7928180570196783e-02 -4.1711706297827778e-02 -4.5773591439528258e-03  6.8382286848588186e-02 -4.1312136004473324e-02 -1.6988436453848498e-04  6.6380250049913894e-02 -7.5543050395671565e-02 1.1321162489558317e-03  7.0362836896385644e-02 -5.3872925269461587e-02 -1.2762642518146812e-04  3.7162024725795870e-02 -9.9373576874190170e-02 -4.7012592245143986e-03  4.2026385187164325e-02 -9.0738717692438367e-02 -8.2994266261652554e-03  7.1213927008173208e-02 -3.2655844677318017e-02 -1.6895584378411911e-03  7.2158575487760709e-02 -3.1360707508664210e-02 -5.8726661017161211e-03  6.6406715102377570e-02 -3.3850940170463487e-02 -3.8437795478665827e-03  6.9744546384751999e-02 -6.5476218979233419e-02 8.3503583559924426e-03  3.6441056396216261e-02 -8.0886146390993396e-02 -8.8885742480220662e-03  7.1458638719491874e-02 -3.9028726503285378e-02 5.3744444423743211e-03  6.6519266491293721e-02 -3.3200656593059270e-02 4.3370663233615768e-03  4.3965013301562897e-02 -9.3965274913505800e-02 -2.2205536607506206e-04  2.9347266747876029e-02 -9.1818224802997006e-02 -3.0105816149760406e-03  5.3249646539215399e-02 -8.0093328051457136e-02 -2.9360755826520202e-03  1.8265035865782792e-02 -7.2339437543041105e-02 -5.0792614152035944e-03  6.3543693315334132e-02 -4.8718596919551632e-02 -9.3129276464587081e-03  4.7399644218405486e-02 -6.5118458156122203e-02 8.7290849710198754e-03  1.8567257977717799e-02 -7.2096671675169352e-02 3.0570105054560496e-03  2.5615109358855952e-02 -6.9874113926147202e-02 3.8427631536180795e-03  2.5618812072564948e-02 -6.9984592745697655e-02 -2.9511772676717987e-04  7.6193207189126116e-02 -3.9766575225154456e-02 -5.1499856372429270e-03  7.5212913683106342e-02 -2.9906262481620399e-02 -9.2240101478709355e-03  6.8210724580951468e-02 -3.0660631093862911e-02 -9.6979745398808968e-03  7.0988162956398940e-02 -3.6031430130818699e-02 -9.4602105953897498e-03  3.5014555964505034e-02 -7.4974870597699000e-02 8.7428545021514294e-03  3.5752609116833131e-02 -7.0456015582938125e-02 5.5384545925261158e-03  5.4683239422326155e-02 -5.0511957469766319e-02 4.5356370558994781e-03  4.9730601571935013e-02 -5.5338028434541643e-02 3.3566095831724222e-03  3.4305367423648911e-02 -7.1837714274062131e-02 1.3919341660340822e-03  2.5099068205411579e-02 -7.8292211315615562e-02 3.0308340538566046e-03  6.8448425915703548e-02 -7.5339299259523915e-02 8.3755414189840404e-03  8.2922088457172929e-02 -6.5218695478802546e-02 5.0569863626991358e-03  2.5033683964870834e-02 -7.4031468660380823e-02 5.4293659789016631e-03  3.2120715866326581e-02 -6.7099109039580662e-02 4.5965608084697004e-03  3.8290346953533311e-02 -6.3807907843838677e-02 2.6701537533916262e-03  3.4294324823309158e-02 -6.6177504794326505e-02 -5.0717391479455985e-04  2.7719710021130842e-02 -7.4365589022082790e-02 8.7682296293730682e-03  2.8913003930097131e-02 -6.8468892101571768e-02 8.7541232744565555e-03  6.6776475501834881e-02 -4.2636500995964124e-02 -9.4289661315263475e-03  6.5122346389552402e-02 -3.7076368293610225e-02 -9.5908044342345213e-03  4.9158185331413369e-02 -5.6212583630089047e-02 -3.6930642781111147e-03  5.2052407872028639e-02 -5.3627115294028097e-02 -9.6862296747474395e-03  4.6871942493494460e-02 -5.8649165194171279e-02 -9.8616671127116258e-03  7.0238843766121911e-02 -4.5151842136100066e-02 -9.1058884629564001e-03  5.4297311299331422e-02 -5.0905497369958953e-02 -4.2969830138004815e-04  6.5036189350407531e-02 -3.6328931133501302e-02 8.8089970650859443e-03  7.5309624134278025e-02 -3.1331038725000725e-02 3.1388626828780910e-03  6.6097989283260328e-02 -3.4226687468797423e-02 1.3542760900645143e-05  7.2843348889938889e-02 -6.8368981697460404e-02 -8.4512451401757994e-03  6.4045831898899702e-02 -6.1258897197493660e-02 -9.0355250808341354e-03  7.1706994031820612e-02 -5.3148814311051736e-02 -8.8362703794392788e-03  6.8107968066917157e-02 -5.6418691685028416e-02 8.4740508247008444e-03  4.9424067244551513e-02 -6.1647130032364016e-02 8.5425699137647848e-04  4.5687625917324878e-02 -5.8911413877101276e-02 1.0492349504688549e-03  8.1539439283279710e-02 -5.1157309519599327e-02 -8.5218307247130528e-03  8.5947743019860620e-02 -8.0995038669083474e-02 4.3277985938232066e-03  4.6403799106302046e-02 -6.4469407952373936e-02 -9.3180152772269157e-03  6.1317169107955545e-02 -4.2982170827143645e-02 -9.5223986617509974e-03  5.7045507263012739e-02 -4.8746865824012185e-02 -9.6100291353718448e-03  1.8241940237438175e-02 -7.2249460458639281e-02 -7.7770018549488560e-04  4.3918353522891904e-02 -6.0315928611849111e-02 -1.9856027188303784e-03  4.3781869753960270e-02 -6.0453036281911073e-02 -5.4719229914681347e-03  4.0988940431085710e-02 -6.2708874967622896e-02 -9.6541829032993735e-03  4.4264103288361056e-02 -6.4544355108076198e-02 5.5734614628822820e-03  3.5254619634778356e-02 -6.5634397413442014e-02 8.9733385416829702e-03  9.3776915247339443e-02 -7.2439685369120280e-02 7.6468848919981972e-03  4.1295905479509835e-02 -6.1871236240698797e-02 8.8512415125985029e-03  6.2992110110007646e-02 -3.9801095648593035e-02 -2.0258513570956811e-03  3.5809893778762307e-02 -8.0711742437986109e-02 4.9381281716030173e-03  4.0306449167608387e-02 -8.6931999869298962e-02 8.2970217346220992e-03  8.2242580861821762e-02 -3.3075838244706585e-02 -8.9206892262648791e-03  2.8494781417067447e-02 -6.9192185533176756e-02 -9.6035433250305675e-03  6.3039817245897689e-02 -3.9839544482158373e-02 -5.4268744850672285e-03  4.3787616897808190e-02 -9.4211410414858476e-02 8.2663632145107274e-03  4.4137774376360323e-02 -5.9905786584379346e-02 4.4827003383477570e-03  3.2342594236813529e-02 -1.1341185334293448e-01 7.9652926470508926e-04  2.8507089027809733e-02 -1.1464935449131772e-01 4.6994192917269011e-03  3.5345487834502733e-02 -9.9497144212711497e-02 4.9414488967352505e-03  4.9797211236571257e-02 -1.0717403392079156e-01 3.4137724285117307e-03  3.8888590231172249e-02 -1.1153285112185961e-01 8.1586745626437748e-03  4.9956172713313388e-02 -1.0705751725355447e-01 -2.9374291177017707e-03  2.8357479200528175e-02 -9.2313891744631824e-02 3.1182252159498852e-03  3.8088364708035539e-02 -6.4093442517691737e-02 -3.7771235766584162e-03  1.1010969775472337e-01 -4.3509008489808161e-02 -4.0389653413811866e-03  2.3735920137273134e-02 -9.6312684107488805e-02 -8.3861396008034148e-03  2.2302562107954189e-02 -7.1110137256825565e-02 8.9832805957153154e-03  1.0609107646240944e-01 -5.3905847249822537e-02 7.5691085427716251e-03  3.9589013714724779e-02 -1.1197355565110957e-01 -7.6405179950750539e-03  7.1228881868805827e-02 -3.5268421760130668e-02 8.6772924524659480e-03  </DataArray> 
</PointData> 
</Piece>
</UnstructuredGrid>
</VTKFile>