<?xml version="1.0"?>
<VTKFile type="UnstructuredGrid"  version="0.1"  >
<UnstructuredGrid>
<Piece  NumberOfPoints="1521" NumberOfCells="6925">
<Points>
<DataArray  type="Float64"  NumberOfComponents="3"  format="ascii">0.732183409537418 1.140526737954318 1.522684020460248  0.7136845965735563 1.320018230157566 1.474619923858329  0.5609737273861496 1.24801251017435 1.730542466241144  0.7607001350052351 1.260424519763623 1.669560102790209  0.9914647818268567 1.726907210519121 1.935228668438762  0.883561581743268 1.784582672568525 1.710009801277581  1.092079078846156 1.673127748326445 1.788281947903533  0.8977302739666044 1.576180244082236 1.801947489500242  1.566222033465848 0.6661030888008038 0.5912807869876476  1.41365910736517 0.7656831411113297 0.6544112952728978  1.427425469460917 0.5913203771944064 0.6845895297801308  1.501637842982097 0.7343919957862748 0.8361987057655689  1.150763483763826 -0.07403701484020225 0.1412992326054288  1.202427620265694 0.06754131316450507 0.2077468011893311  0.9967194381176245 -0.03330810375885275 0  0.995764331275538 0.04300546626492786 0.2414409042137786  1.41160166813099 1.196126621503655 0.3090022457780802  1.54606813030331 1.253548306485249 0.2040741683611618  1.450260478003357 1.370290268591049 0.1639005314059125  1.450260478003357 1.370290268591049 0.2836086407035668  0.6933957066467282 1.69795433837878 0.1635939864331081  0.8403539107971967 1.807677653847698 0.2174349706513459  0.7020063510553689 1.866979266717485 0.1896186473286435  0.706451589624392 1.697226499000086 0.3982342841926655  1.145570657126577 0.09073366089195127 1.096435407772413  1.173201032645777 0.05550930600069402 0.918227677627026  1.247580225664952 -0.07376471628835438 1.040824247022605  0.9925354033756659 -0.07578932140163394 1.047730839466361  0.6812588632115952 1.118619304293245 2.206414476438926  0.833561928983804 1.106333671659584 2.114739590956363  0.9292069077985305 1.169713145348791 2.251071999368573  0.7984992035705643 1.093580687305916 2.355483731778198  0.9124305793014629 1.565511263260968 0.8889423704527182  1.148266900218895 1.632470347494722 0.7760962003122538  0.9736642149163375 1.73642181175903 0.7613313560827597  1.067971894380113 1.686013306879965 0.9712859565028332  1.40187443517195 0.1327667147436424 2.822362403366792  1.466558106052596 0.2817586266787312 3  1.332109217660817 0.3411528732484051 3  1.294403643482228 0.05955050655315847 3  1.17142772427233 1.094988432171244 1.858056969481708  1.171278188789716 0.9691433784405465 1.998514355485991  1.016120944044608 1.102089671672646 2.036977356742696  0.992675948943354 1.102549835577802 1.798425558398609  0.1473352666466685 0.9854887428239678 2.502294220035546  0.1151678057730118 1.235025693060042 2.390717205199229  0.07841697873898257 1.143584176173492 2.536272060037994  0.2302520904762103 1.120426492642449 2.440707146829252  0.2806437375413942 1.378186639981345 2.040365986048411  0.2910122487013274 1.292035623404749 1.869050756627552  0.2333870436518858 1.129338656402376 1.938105183648017  0.1913610209634948 1.217604611144374 2.096226706124764  0.2211144836506645 1.618178895116259 0.8043341149434403  0.3294950762898061 1.668238162746134 0.966194500504163  0.16989140141803 1.789131610187634 0.8552254804319069  0.03552667676498487 1.618478626420912 0.9275190623260793  0.5258789941024695 1.920406916341673 1.269642269100183  0.3716757368954284 1.963393135079361 1.296930351020876  0.4222817156343491 1.951832807195724 1.150606934376676  0.2833250729655248 1.816760160343287 1.283503035704437  0.7514631754972593 0.6530583583365746 1.860040428986763  0.8701144086442769 0.4832709042638224 1.981551252279348  0.9926698531299667 0.6714025776160066 1.925905634774475  0.8883439199926552 0.7401535438430895 2.082168800068689  0.7617321165518149 1.545475547313497 1.634858452335788  0.8541511099632297 1.800302897248522 1.561798864150898  0.7463689353249702 1.628470407070906 1.44163610360513  0.6372110143608405 1.699150215676512 1.61665838144887  0.6268699829720188 1.88977163479387 0.8466756953559571  0.7693773554430641 1.662507950168824 0.8676471248666311  0.7243670856130675 1.860196212046383 1.011459211036397  0.5374981675396941 1.737695542099279 0.9774496722982658  1.305632769307988 0.4406510276582192 0.3804026516380027  1.282537039249612 0.2363797118768628 0.3053331295772587  1.326550562226941 0.378542351314602 0.1626366713916731  1.495679439609556 0.2793569234790725 0.2264125224316273  1.3479809435352 0.6668823129707342 1.364971915004398  1.412822403666648 0.4710898793384568 1.242923513053381  1.34091015716169 0.7679783541054908 1.182826823403476  1.523954922361796 0.5551882818616769 1.120566182883  0.7863350961726596 1.836551311815374 2.783451575118576  0.6025968185442109 1.750541232022648 2.862692570843587  0.6876404033323162 1.59480468236242 2.817869004028069  0.8528517518083659 1.800997418651885 3  1.404081553600051 0.9269227370687462 0.759706867232442  1.147293256496168 0.9676991312935151 0.8387678391697765  1.216878972888111 0.8293586510690879 0.7042662006854913  1.379161445258569 0.8291723513041859 0.9266694160329361  1.760272669253764 0.5964673819110193 2.505687988668203  1.813783023523185 0.8289315675290307 2.510673496890079  1.625587095521637 0.7211967414532077 2.50552941246228  1.832087156379078 0.794686943563744 2.667821143356473  1.752104875742618 -0.05968858876188873 1.473028586177865  1.842129610245972 0.02963105559060433 1.605945761093188  1.979810276051064 -0.2049897073323348 1.552790642573416  1.99869135070209 -0.01328693929930652 1.567372673453097  0.9811802539750005 0.1910800880433448 0.19358412766808  1.132447833750306 0.3081914121481985 0.1673056450858442  0.9585781592746674 0.2682973894693806 0  0.9364237643109825 0.3413306420509775 0.2414409042137785  0.7387629543149025 1.343634284549308 1.250811403202519  0.531675643823579 1.35149140961488 1.330341375926256  0.6463354541522758 1.477600890095991 1.40658597306573  0.6340232630215735 1.538529564821593 1.232997590089381  0.3878074537212032 0.9211406860355945 1.56316561931124  0.3487635718286052 1.170502790795573 1.68090314338601  0.362982325700015 1.097403179494497 1.510807210080522  0.3236444261483238 0.941788819250616 1.704650076532747  1.638265760937456 0.8075970431175096 2.693647924784686  1.651533887694526 0.7931600143738651 2.877667100393918  1.525615585814396 0.9452012181080031 2.812405218169376  1.510577850946902 0.7536415652203946 2.846600195461432  1.389145018498103 0.5766692432677291 2.784942526878788  1.413932979014197 0.4632555030044809 3  1.490919781111188 0.6358346222938404 3  1.282044750785174 0.6443346695397878 3  0.6113621095454691 1.559157828931674 2.633142542332572  0.5121162203062299 1.545180157184272 2.849832102204967  0.5718581552178971 1.401646598752821 2.78327397574258  1.765302604366709 0.4641298078195233 0.8453626568374771  1.943712494714031 0.4490507984050179 0.9486115208363934  1.889377596151263 0.6281689542939441 0.8021969849947119  1.897674944569123 0.600816262254626 0.9585080108463235  1.641122003800203 0.7891055085251996 0.4610024534298749  1.462426556932308 0.7467058556074035 0.4680641729046264  1.680448056661497 0.6103391643892788 0.3961325776834063  1.753556668618872 -0.2402844425734547 1.339794116495772  1.989874603375815 -0.1028048771674748 1.356988283675049  1.838826172293674 -0.04065582411849211 1.247706879147987  1.335886399658233 -0.1549367525873571 1.749389863580818  1.2070568154759 -0.16827490572336 1.878258265955122  1.303666810079563 0.01966529868003938 1.706284701931926  1.159076081131233 -0.07283330249172737 1.712960449524972  1.270644951460015 1.251938473709177 2.766655194357277  1.372440434030382 1.058546929503558 2.748473435808144  1.347216545205477 1.169795517672948 3  1.190932579257355 1.041990473357285 2.835929745574762  1.691195930331671 0.6619803069724559 1.425378080298767  1.547769380133094 0.7204322684478921 1.30191046268946  1.519962374955273 0.641518098110928 1.455728969902069  1.561075760146102 0.9044529377222179 1.451179433655691  1.639777270590996 0.3331212675128624 2.30190829663906  1.705535563495672 0.5521979877882885 2.326467477137883  1.79321417689464 0.3667383872362768 2.388486834498154  1.773165081496388 0.4218351657076612 2.230833176713765  1.725679436437728 0.6647407144387332 0.6713341143948138  1.642062262390295 0.6287710506393468 0.8247987883294958  1.717724674291946 0.487745428151296 0.6456217334845505  0.3574653733510181 1.300082593995328 2.277525537226534  0.4371209871746475 1.32147755910073 2.062370117939458  1.121784176489872 0.5201194492177447 2.070229349307204  1.096263808872668 0.7739515080406876 2.10552135636145  1.000576430847044 0.5883218146888756 2.182601549484694  1.47761820339067 1.102728237747304 0.158656822858263  1.641848383670547 1.13683973007556 0.1886100604898311  1.594015245914297 1.195124577071487 0  0.4365007418354393 1.154975346693168 2.040879192261474  0.6473118849863673 1.199502095000125 2.048659213569843  0.5679932990077574 1.031710232338232 2.087091769228307  0.5456261653777387 1.214903973370491 1.904161946924963  1.318801492734895 1.324373804544829 2.872914743765251  1.281850161250183 1.287754708290684 3  0.2368492136243883 0.9681178591227462 0.6482915531943112  0.2805274815907017 1.19492990527241 0.6448688554594389  0.1927105574001838 0.9810196667599145 0.800698172036127  0.3404297083500323 1.130147095819184 0.8384940971870629  1.422490745513066 1.404127785535103 1.004492749089083  1.47063798852632 1.345460200176112 1.137778178466117  1.382265307739925 1.440432817354532 1.11985655945852  1.381364173329759 1.217116812223958 0.959704376183687  -0.01259488143355922 1.21498103915045 1.058596909608626  -0.1489357013508603 1.164591155119653 0.9529121367853837  -0.007449891895982996 1.187787654753691 0.8445566158245871  -0.06703723609441922 0.9933974085398751 0.9217401928558936  1.515505474729766 -0.02314248739035649 0.2064998396213723  1.448230290096052 0.1156809337378102 0.3481149518729802  1.381249970920405 0.1334042842599036 0.1656729191843532  1.313573222573367 -0.07857417
[...]
<PointData  Vectors="f_18"> 
<DataArray  type="Float64"  Name="f_18"  NumberOfComponents="3" format="ascii">1.3480675188297486e-02 2.1184216156257634e-02 -8.3325130774596982e-05  1.1147507774854702e-02 2.0827702616907393e-02 2.0787879903865882e-04  1.0145157169636135e-02 2.2768332564364620e-02 -1.5559989931039329e-03  1.2266593215486520e-02 2.0412181536443069e-02 -1.0549122323496296e-03  9.8505460291269734e-03 1.7247290164046580e-02 -1.9506888203933634e-03  8.9017301062349462e-03 1.7991901889213621e-02 -9.0348257057930976e-04  1.0901214716288587e-02 1.6722914127727577e-02 -1.2350482383344653e-03  1.0350359747218754e-02 1.8307173654150580e-02 -1.4596559733867818e-03  1.9114247269226316e-02 8.1648541618077070e-03 4.8641876684370538e-03  1.9087459487492329e-02 1.0306102941967576e-02 4.8037388389062562e-03  2.0573317637531202e-02 8.5202841103175740e-03 4.8445275412139725e-03  1.9378108796672826e-02 9.4653326097963748e-03 3.7048931698305857e-03  2.4618703260900279e-02 -1.6069406946953254e-03 1.0378191538013760e-02  2.4279338536426418e-02 1.3618182343827581e-03 9.4554838737821931e-03  2.5842046063292837e-02 -7.7215437969862968e-04 1.3008325066478097e-02  2.7820151081860051e-02 1.2280750399998410e-03 1.1049209751561838e-02  1.4399995827276035e-02 1.2284621503061987e-02 5.6896478384191275e-03  1.3771096472675019e-02 1.1228984480086451e-02 5.6482081161590503e-03  1.2777501363196123e-02 1.2137640864537405e-02 5.8390538022348839e-03  1.3088054614917929e-02 1.2429717192819472e-02 5.3455926474378530e-03  6.9329952227772506e-03 1.7135706955884292e-02 6.3593525430757775e-03  7.4673652425321481e-03 1.6205884504961049e-02 5.6002306168801228e-03  6.2069743901634169e-03 1.6675006279367893e-02 5.7095774021366699e-03  7.3526104250897471e-03 1.7868652074968898e-02 5.3309205764384285e-03  2.7570440992954841e-02 2.1857146004194156e-03 3.2329098596919487e-03  2.7012981232384374e-02 1.2714633896041968e-03 4.5499908886287898e-03  2.6046234263061019e-02 -1.5298963129682750e-03 3.4357353151624899e-03  3.0265006578090239e-02 -2.3970040013660192e-03 3.9755194907096555e-03  1.2931101960642835e-02 2.1391314168607272e-02 -4.9036004090973976e-03  1.4608676096148483e-02 1.9450416460724772e-02 -4.0185018282977228e-03  1.4194187154413507e-02 1.8020376956192324e-02 -4.5443523166990053e-03  1.4190851850681046e-02 1.9559028367607461e-02 -5.6620683517253790e-03  1.0341549134970686e-02 1.7925545540953658e-02 3.1365840907635386e-03  1.1145775529856492e-02 1.5906105039153986e-02 3.3152736242373316e-03  9.4426200394843191e-03 1.6974015812422430e-02 3.3873594083141246e-03  1.0548435135608632e-02 1.6709283484973095e-02 2.4990987432139209e-03  2.1658641609396033e-02 2.0037223155288048e-03 -8.0514836851376687e-03  1.9488946034543125e-02 3.7127941842805662e-03 -8.3628488652579772e-03  2.0185419385994472e-02 5.1069536695410407e-03 -9.1970758637917385e-03  2.1613038599174957e-02 9.0558495938153729e-04 -9.8538578649524731e-03  1.6398172519553816e-02 1.5405764528359693e-02 -1.9966315962618038e-03  1.7716430037336330e-02 1.4754717099771825e-02 -2.9735685328940386e-03  1.5697400770812261e-02 1.7086270992770995e-02 -3.2913661165474587e-03  1.5790133175380146e-02 1.7573601393908157e-02 -1.8024265687367404e-03  4.1907401146616952e-03 2.8686166723240463e-02 -8.6728902345170715e-03  2.2643636567947741e-03 2.5364747320521724e-02 -6.3763805123887574e-03  1.7588661734503047e-03 2.6350755448332791e-02 -8.0179680610406746e-03  5.2957749732712410e-03 2.6151007240932580e-02 -7.2999079397589950e-03  4.7679724237211975e-03 2.3719678863849632e-02 -3.4799754183956638e-03  5.4702820237220156e-03 2.4684888970947266e-02 -2.5164705487004039e-03  5.4998135548392614e-03 2.7080812406930787e-02 -3.3559829309242283e-03  4.0719030468338571e-03 2.6002936792438376e-02 -4.3367764868785623e-03  2.9314585085888690e-03 2.1712125398508388e-02 3.9684382998240357e-03  4.1278446775705529e-03 2.1248925490650734e-02 2.9608514957694633e-03  1.9178304133102167e-03 2.0704325823566436e-02 3.3717727403315772e-03  4.2047735273357910e-04 2.2215953244994275e-02 3.3383621459573054e-03  5.2556013961690658e-03 1.9401688851786350e-02 1.1302771182665318e-03  3.6891113992527751e-03 1.9713817703282600e-02 1.0221980034950901e-03  4.1869950993010012e-03 1.9563686967195272e-02 1.6684763496161159e-03  3.1909175677335153e-03 2.0732042730938347e-02 1.1651254521205360e-03  2.2826176577173479e-02 1.9967349216685706e-02 -3.0414516051598299e-03  2.6548545444928448e-02 1.4720047043210819e-02 -4.0419328056552281e-03  2.2269139891348832e-02 1.5005954328204361e-02 -3.2274056650661853e-03  2.0960771605636898e-02 1.7482064081616778e-02 -4.4728189775988950e-03  9.5913621679122804e-03 1.9595292804301369e-02 -6.7707422414553173e-04  8.6203620638111433e-03 1.8181270195380204e-02 -2.2878349862210550e-04  8.7971897736087937e-03 1.9357055084695159e-02 3.8441141506766354e-04  7.3801309519916820e-03 1.9825813330683319e-02 -5.1628583317067862e-04  6.0923984815476392e-03 1.8604368162729049e-02 3.0093683636595154e-03  8.5891351532179725e-03 1.8676602119308709e-02 3.2165203101900889e-03  7.1777206284418761e-03 1.8503888783101274e-02 2.2798504790671323e-03  6.1046953292344082e-03 1.9942619242188434e-02 2.7259806691695928e-03  2.1787292553034205e-02 7.4139665031319564e-03 7.1905731864949033e-03  2.3172174533043620e-02 4.2816640749527551e-03 8.1186511882084412e-03  2.1112437440677131e-02 6.0727837895963050e-03 8.4136946502186734e-03  2.0529705500931739e-02 3.8942708428298684e-03 7.2590582821104623e-03  2.1099027908785463e-02 1.0460603001841243e-02 8.7645575725686816e-04  2.2366574894865442e-02 7.4578655547784265e-03 1.6344374745802454e-03  1.9845042826046874e-02 1.1474658039245675e-02 1.9624289442978695e-03  2.0943723159461740e-02 7.6685379500505621e-03 2.2030952411058692e-03  6.9637134136967928e-03 1.6396790894783974e-02 -5.4461784184697713e-03  5.8912613584545543e-03 1.7223580352397766e-02 -6.3044413333821761e-03  7.5126291931846478e-03 1.7543833269145902e-02 -6.4611094562474934e-03  7.2460816879185794e-03 1.5401946373517734e-02 -6.3817915634223083e-03  1.7828429450415715e-02 1.1743205312642408e-02 4.0899197612710757e-03  1.7582430083130225e-02 1.4868622819527387e-02 4.0551273885253893e-03  1.9052997763954027e-02 1.3020647981467282e-02 4.9843854537535339e-03  1.8976007870712998e-02 1.1428896528191778e-02 3.3765007216174842e-03  1.8414226229439862e-02 6.2170070147239990e-03 -4.7224536507306297e-03  1.7008665334807566e-02 7.7554820313374883e-03 -4.3239643334557695e-03  1.8224897892250343e-02 8.1169926906361385e-03 -4.9333360773304181e-03  1.6639186863118147e-02 7.1745456311585664e-03 -4.9688498726707404e-03  2.1486604347849124e-02 -7.8851961253696972e-04 1.6133857077525857e-04  2.0925978839260628e-02 3.4988006712756718e-04 -5.0189550547745181e-04  1.9973356864991975e-02 -2.1050366912275650e-03 -2.2631981166179219e-04  2.0026177948861197e-02 -1.6395093883000571e-04 -2.6137928647090939e-04  2.6864806848103745e-02 5.2665788546043370e-03 1.1453260461535246e-02  2.3640392360670132e-02 6.5228454569648715e-03 9.9840283250805101e-03  2.4815809494088785e-02 6.9990203048979792e-03 1.3143415660038909e-02  2.6058022375046990e-02 9.5493241192800612e-03 1.1030113517052079e-02  1.1094383381064787e-02 2.0338950617610846e-02 1.5872782497919412e-03  8.7583703493137825e-03 2.2361620410665660e-02 1.1781934432953060e-03  9.0194444772140198e-03 2.0781329933498856e-02 6.1702119345794220e-04  8.3982038861029479e-03 2.0485920231193437e-02 1.5698725611259781e-03  1.1760198483390128e-02 2.8023682241114130e-02 -5.5742255347517782e-04  7.5487885618600106e-03 2.5670134082572977e-02 -1.2797915284004278e-03  8.6553230722985416e-03 2.6360484041613702e-02 -2.4003602970466929e-05  9.9175629305993766e-03 2.9022866992874950e-02 -1.7594361579640063e-03  1.7020437208342523e-02 8.3987199521819121e-03 -5.6571836546732415e-03  1.6407781409754782e-02 7.8695306379640648e-03 -6.4145563972332282e-03  1.5905048794650132e-02 9.8400918253890180e-03 -6.2504513981840428e-03  1.7227187163216966e-02 8.5819598844170900e-03 -6.7714220079181054e-03  1.9415998118076407e-02 8.0346901649557597e-03 -7.2859796668577597e-03  1.8889768744513286e-02 6.1240222045203744e-03 -8.4762209273398850e-03  1.7437063330583327e-02 7.4151591585078346e-03 -7.7926913480937787e-03  1.8217771186117244e-02 9.1255947136875820e-03 -8.7874569429226800e-03  7.3877319640362578e-03 1.8926433437454926e-02 -5.8255494271089135e-03  6.1797556849595486e-03 1.8691722947159456e-02 -7.0204710727278649e-03  7.8890041918534461e-03 1.9455767267221234e-02 -7.2342620776772388e-03  1.9841565538784991e-02 5.1946973244646035e-03 3.3490988597956670e-03  1.9197623390731246e-02 4.4336429724536287e-03 2.5858327576305340e-03  1.8420528392292770e-02 6.1747202343180405e-03 3.2251157489023479e-03  1.8777038657039304e-02 5.9347084324213239e-03 2.5187746555208669e-03  1.7641150575840644e-02 8.5076875200407517e-03 5.0959067077887797e-03  1.8593159862632165e-02 9.5088988215851315e-03 5.6365070833362474e-03  1.8385533283574354e-02 6.6949853437248330e-03 5.4909428412916773e-03  2.1180740164260688e-02 -2.9664635742508967e-03 8.5766149682879470e-04  2.0018412040810188e-02 -1.0523133334819027e-03 6.9304639003875239e-04  2.0885813190555349e-02 -4.8500052745097290e-04 1.3026026655766783e-03  2.5013132198536257e-02 -2.9338106198240287e-03 -1.6948999562587581e-03  2.6434417734586477e-02 -3.7202429667168241e-03 -2.8328766307566290e-03  2.5604654869840343e-02 3.5928889725958025e-04 -1.4063661565035474e-03  2.7551296040491422e-02 -1.7784128275205669e-03 -1.6626588005298907e-03  1.3498134941900775e-02 1.3324330379820623e-02 -6.0901783828028380e-03  1.5330829324110045e-02 1.1827283742374585e-02 -6.1959192202423359e-03  1.3568941276219725e-02 1.1781828476859898e-02 -7.1450495258727651e-03  1.5116536120441039e-02 1.3249968580461123e-02 -7.1792258309650008e-03  1.9627647890610885e-02 7.7317887168671029e-03 4.5431213159935485e-04  1.9752184137074660e-02 9.2275434637534934e-03 1.1419629048238474e-03  2.0508557117873430e-02 8.6691100826393960e-03 3.3130852113287339e-04  1.8354883076692363e-02 1.0641070104270789e-02 3.1361029025527628e-04  2.0823946442910142e-02 4.2173267327074689e-03 -4.2994223913481264e-03  1.9416213349618332e-02 6.2573067446583903e-03 -4.0988318967628105e-03  1.9550088036076493e-02 3.9573527779958578e-03 -4.3212314073299701e-03  1.9823087989480272e-02 4.6931281942242907e-03 -3.5811877489823787e-03  1.8614782818985154e-02 7.2019365424294312e-03 4.1005195890665373e-03  1.9516571775492271e-02 7.4830152633839318e-03 3.5793221214757312e-03  1.9561882635918494e-02 5.5838664308027674e-03 4.3630714829081107e-03  6.4270883677622816e-03 2.3584890677468318e-02 -5.1467614955780661e-03  7.5102919360805001e-03 2.3073455917199996e-02 -3.6791683261811650e-03  2.3681033129577030e-02 1.1031207161016599e-02 -4.1592124557334872e-03  2.0243314736704623e-02 1.4360617900744782e-02 -4.1184056052214505e-03  2.3320096250904813e-02 1.3733509514650912e-02 -5.2287017274558365e-03  1.4655663314506793e-02 1.1000287068719659e-02 6.3433154826978196e-03  1.4512813346289637e-02 1.0097722708110945e-02 5.6908827625803049e-03  1.3607388069365759e-02 1.0230514393015911e-02 6.5387126521891841e-03  9.2255210333743246e-03 2.4543948564511239e-02 -3.9284140123488596e-03  1.1623230410062330e-02 2.1707435486784745e-02 -3.6344837271232375e-03  1.2935549122110626e-02 2.3764884544425074e-02 -4.4807244632539718e-03  1.0222381830606189e-02 2.2970035355659203e-02 -2.8107942795188526e-03  1.2718281795036774e-02 1.2790298848669562e-02 -6.2471289593210057e-03  1.2562935675407857e-02 1.2630738692352357e-02 -6.9813946269190697e-03  6.9293554251797732e-03 2.8821230496473234e-02 7.4950752897391237e-03  5.8416951519367358e-03 2.5108445152522321e-02 6.3334114683667331e-03  5.6432015761410234e-03 2.9485091352546195e-02 6.0922527269345779e-03  7.6597584839521657e-03 2.5712312920202925e-02 5.1648691265127108e-03  1.4016570348173642e-02 1.3926914094601813e-02 2.2782517720596942e-03  1.4686640481300858e-02 1.3474699265282480e-02 1.7042058642043087e-03  1.3771005913064909e-02 1.4370528215609078e-02 1.7955342354814211e-03  1.5421175254931748e-02 1.3643284028671737e-02 2.7381983744119310e-03  -3.1694802450632953e-04 2.6677146294610890e-02 3.3695636330061465e-03  -3.4534196617201337e-03 2.6927642664894703e-02 4.3187827034811667e-03  -3.0203759520008801e-04 2.6756723615238051e-02 5.0833337178186368e-03  -2.1439980743957017e-03 2.9993972403300033e-02 5.1358755719224857e-03  2.0928794826702696e-02 -3.2706609792528441e-04 7.3493597313482950e-03  2.2064256393159402e-02 1.7628485405596938e-03 6.9774038881280026e-03  2.1784389624056752e-02 2.1232884382921149e-03 8.3203921414325595e-03  2.3399171339204116e-02 -1.3841087685430686e-03 7.9541532494690256e-03  1.9687924392660507e-02 3.6069285991793452e-03 6.2572488715473594e-03  1.9206786307352543e-02 5.6176284000161864e-03 7.2579950247174084e-03  2.0336916290202726e-02 6.0128300294888977e-03 6.2180386817914527e-03  1.7976057254846828e-02 9.0071949452984867e-03 -4.1361258669391074e-03  1.7164060265855961e-02 9.1636358337989464e-03 -3.1629597357725071e-03  1.6071746609823211e-02 1.0354118936504699e-02 -3.6021746641594038e-03  1.6829579096104996e-02 8.8613666612403514e-03 -3.9025744061671123e-03  2.2340525041249806e-02 1.0418165107047605e-02 2.1834160664689472e-03  1.4866879042563754e-02 1.6890231780811955e-02 -6.1646706289584840e-03  1.5329242521342450e-02 1.5589004693390449e-02 -7.0221506310403992e-03  1.7044795998908759e-02 1.4991402469755905e-02 -6.5214202931984776e-03  1.4749016564328919e-02 1.4575485578152263e-02 -6.0163734161222801e-03  -7.7486231682990787e-04 2.5966697075364753e-02 8.0199587271348946e-03  2.8641722990264164e-03 2.8332528638991793e-02 1.0055784892497749e-02  3.9329083187356747e-03 2.5146713125952905e-02 7.8997845839991719e-03  4.4026304835370232e-03 2.8904878214082427e-02 8.6105828457654666e-03  1.0794007148794114e-02 1.8159553699050729e-02 -3.5494857623556545e-05  1.0856279646245946e-02 1.8757902341609917e-02 9.7941212022842274e-04  1.1999368921161047e-02 1.7259909210049242e-02 6.0071174495940349e-04  1.2944683241292452e-02 1.7599511316923212e-02 -6.0801625384196668e-05  1.3646205093906712e-02 1.5348115146533938e-02 -7.2933920850249368e-03  2.2789282297010664e-02 1.2268067547353883e-02 -7.5971094063531234e-03  2.1269240860164535e-02 1.4513356681540985e-02 -8.8409455694119319e-03  2.0711066951695088e-02 1.0799810901989870e-02 -7.7423657941426659e-03  1.9666533097670191e-02 1.5028670679542272e-02 -7.2343870275789653e-03  8.4825457940131167e-03 2.7700894558038720e-02 9.2033722679402616e-03  7.6951425014996399e-03 2.4551490399268038e-02 8.4678040510804947e-03  9.7185491709953688e-03 2.4501742958947220e-02 6.7000393573388517e-03  1.1118037401003486e-02 2.7224085840042569e-02 7.9618558577870778e-03  7.1892184621256674e-03 2.3167310090097003e-02 -9.1153101333142118e-03  1.0091444806624991e-02 2.1529978383217706e-02 -9.4250791498605574e-03  1.1199829580863550e-02 2.3366974660046079e-02 -7.9309007381012098e-03  9.9414506603645418e-03 2.1243921890567612e-02 -7.7712626747924608e-03  2.8326560156221186e-02 1.0278262171797748e-02 -4.8458386068906487e-03  2.6086337497116207e-02 7.6963790106585059e-03 -4.4106312817991829e-03  2.5161419747727679e-02 8.7754833577051352e-03 -5.5806926276630664e-03  2.8626046502585947e-02 7.2755808407531262e-03 -6.6430730952234812e-03  2.6494205435362864e-02 1.5294095220090934e-02 -2.4752585513566523e-03  2.8458345118472655e-02 1.0577618904276206e-02 -3.2573178667622293e-03  2.4143014849364774e-02 1.3207523177186630e-02 -2.3204754933820525e-03  2.1281141640975072e-02 1.3740255353747696e-02 -1.5284022406744885e-03  2.2052348039610144e-02 1.6493794424664809e-02 -1.8931075224717755e-03  1.8639160323498747e-02 1.7820041535583780e-02 -2.5575245902583585e-03  6.7120681412328872e-03 2.1483924865000698e-02 -1.0390718180075993e-03  7.5244311017048215e-03 1.9827123726991660e-02 -1.5587809419379801e-03  2.0047948367760894e-02 -4.9650014680016203e-05 -5.4660295749116312e-03  2.0278891401505482e-02 -1.1862181608193818e-04 -4.3161960308486947e-03  1.9989129349215186e-02 2.2294279924319938e-03 -4.8049795205287208e-03  1.9265121571359199e-02 1.5390415052172948e-03 -5.3577450339682819e-03  2.4610994612360625e-02 1.8147897315543234e-02 -1.1817388635681496e-03  2.3306442084508595e-02 1.3866705751879446e-02 -4.2829022575620286e-04  2.7928098075469150e-02 1.2196463118781229e-02 -1.1232198095804898e-03  2.6217675144181794e-02 1.5752803661539201e-02 1.4962397349545001e-04  2.1871178712082908e-02 -2.2993858091598946e-03 5.3627314288514968e-03  2.1336112634848060e-02 -7.9515717339579989e-04 6.2425394500852461e-03  2.0569603961313378e-02 -3.3322017847799124e-03 6.2065875526373850e-03  2.2153010737457571e-02 -3.1518115004979899e-03 6.9273946210548758e-03  9.3675050230670118e-03 1.8024758954090267e-02 6.9280256483372936e-03  9.7414347744149352e-03 1.9632796343552701e-02 6.0716892696090485e-03  7.7445661176796339e-03 1.9192049624726978e-02 5.6665596366059796e-03  6.4945149734049797e-03 2.0369404949447431e-02 6.4031151350705329e-03  1.1158781078486722e-02 1.7434636502038105e-02 -5.8042145245947845e-03  8.2598545041431687e-03 1.9513571426702354e-02 -5.1976292194635572e-03  9.0740994578270683e-03 1.9945537111278801e-02 -6.2950163268907042e-03  9.1896099993921572e-03 1.7959334008104056e-02 -6.1157738739622720e-03  1.3745022917403862e-02 2.7279294745807248e-02 -2.9805746441267226e-03  1.3627965675728718e-02 2.2362564720782890e-02 -3.0406526185813398e-03  1.3341060786470680e-02 2.3692709695003058e-02 -1.6660916163910861e-03  9.9746742914043427e-03 2.5378998605242124e-02 -2.6178544902699550e-03  1.8095645635788606e-02 1.6744836508178401e-02 -3.6201425779187882e-03  1.8581275003139434e-02 2.0167107937220759e-02 -3.5864927277796275e-03  1.7847564895474351e-02 8.7983850378790685e-03 6.2580321544829128e-03  1.7177268289702351e-02 9.5886281367205256e-03 7.0800651327452236e-03  1.9485759142922731e-02 7.8719858281626372e-03 7.2962608001030721e-03  1.9610815011564999e-02 9.7492982090724104e-03 6.8152428200002474e-03  7.7187259881811307e-03 1.7819517327415376e-02 3.3732094598311760e-03  2.1645196687290688e-02 2.3830340888430341e-03 -6.6489708485739834e-03  2.0916134851947644e-02 3.4936298627837085e-03 -5.5058530132051911e-03  2.1509339858547142e-02 5.1485777797861806e-03 -6.6650605055424686e-03  1.9866341040968346e-02 2.9674823982060250e-03 -6.0793996845690378e-03  6.0839890131103797e-03 2.1973020719665462e-02 -3.7307934335899912e-03  5.9017084198157580e-03 2.0840737450945380e-02 -2.4954786917575876e-03  4.8768814203826076e-03 2.2547716348828503e-02 -2.1066176069668603e-03  3.8373128894394924e-03 2.1616276473711962e-02 -2.4912912227365381e-03  2.0425625879883910e-03 1.9867100875817955e-02 5.2921408753108939e-03  2.6238661728786093e-03 2.0473444396635437e-02 6.5926072059561752e-03  2.4736026779539990e-03 2.1215735940301475e-02 5.3649569506985474e-03  -5.7106511024017717e-04 2.1169786468378710e-02 6.1618489191269266e-03  7.2942682856266747e-03 2.1986180409017123e-02 5.9730417218028841e-03  4.9178709579481856e-03 2.2492071851682637e-02 6.4794375290946130e-03  2.2166171290653652e-02 4.4648427665695493e-03 1.0589824513180397e-02  2.1949672604161422e-02 7.9712306124675447e-03 1.1200547032077478e-02  2.4154460298315403e-02 1.6535622979858836e-02 -8.1969708098878057e-03  2.5486525902173898e-02 1.3035920598795974e-02 -9.4852957028181764e-03  2.2631333870189292e-02 1.7495721891466563e-02 -9.4868470109111119e-03  1.8813413906558687e-02 1.3750757945860965e-02 3.0705438550306533e-03  1.7691480921877233e-02 1.4161195934238074e-02 2.0552441167736770e-03  1.9667570099534664e-02 1.4870382881737837e-02 2.2596815208262033e-03  2.0793255038653525e-02 6.5519027607783553e-03 -8.2617801969802427e-03  1.8651318838766043e-02 5.8424596945399034e-03 -6.8967831578988894e-03  1.1722518697842989e-02 1.5760752730209718e-02 -6.0506584319205033e-03  1.0877143414698849e-02 1.4551730181146302e-02 -4.9959413429900923e-03  1.1708691590116230e-02 1.3707733584227902e-02 -5.2441695820373323e-03  1.1914160977292870e-02 1.4172350956100891e-02 -4