<?xml version="1.0"?>
<VTKFile type="UnstructuredGrid"  version="0.1"  >
<UnstructuredGrid>
<Piece  NumberOfPoints="560" NumberOfCells="2231">
<Points>
<DataArray  type="Float64"  NumberOfComponents="3"  format="ascii">-0.437270184892133 1.130513867865045 2.464959339784276  -0.1575558557429018 0.9844821026607427 2.300451209289574  -0.4996568060159496 1.207304284946449 2.211354531507026  -0.2218701063947696 1.271394036010528 2.376303590739145  -0.03213356612173944 1.488878780354482 0  -0.3070823851255919 1.60444108748354 0.2883595889737436  -0.04306337502264126 1.710823204504154 0  -0.2557335102430105 1.704794466024258 0  -1.365668187016484 0.9299040139860805 1.367410651434479  -1.201748691628636 1.207072052806315 1.289441114246246  -1.092520398536819 0.9703544734333222 1.276302537679984  -1.465055270517109 1.000012001635756 1.147846198214053  -0.2967726742171207 1.45008703957925 0.5524522132634159  -0.6434887749968319 1.482298065117458 0.3762371640162411  -0.4239378236407559 1.157590678344242 0.2544789876954237  -0.257779200723075 1.408996539962001 0.9003453641819071  -0.449287289247648 1.401735488301874 1.07854318826235  -0.3604156621198063 1.181682748976093 0.8516920471286565  -0.1567954956475845 1.268824098264383 1.086696983274594  -0.9847724872443645 0.7253991145725994 1.018214856799495  -1.194979136873971 0.9101429222428052 1.043890337845854  -1.097355000557124 0.7122318174845157 1.314876825740661  0.8776240038601382 1.468533760046266 1.693262756890803  0.9802711282238878 1.732890343021883 1.862459179955113  0.7730058713148853 1.843675930935447 1.893038983865374  0.74933335755538 1.547164680476453 2.062818974539214  0.9184226498440161 1.155749859749666 0.5990761661345709  0.9961579193758268 1.462281686930205 0.6246492917812876  0.7314204854759964 1.319570469529748 0.6591793876373161  1.077168197567472 1.22108614020189 0.7886821271081074  1.054936037662884 1.08774886345209 1.371195246126525  0.9558336858219978 1.133613571114183 1.140304209729167  0.7083532190588375 1.191059551730258 1.261319898859603  0.8622242424817076 1.383528502923412 1.39722733100139  0.6276565609536849 1.650471846478252 2.481014272479831  0.6982569277950104 1.512730450876753 2.683434601686926  0.386290996156984 1.626336376880996 2.680975028272746  0.4396671035871068 1.286801682662964 2.649254564270347  -1.064506829054958 0.7861841663411067 0.3270252259291584  -1.087239001855617 0.5563257064680588 0.4941250173552131  -0.9988230818911844 0.9111847969579145 0.7169703928595901  -1.298438048856282 0.7367059447332647 0.5584051522296656  -1.070836665993841 1.684482054550472 1.566742130239395  -1.149270546462357 1.310703286584161 1.538663817668312  -0.9291575857237597 1.369213819560088 1.657448002375269  -1.269036393401747 1.533357385860429 1.584097004581615  1.392011908179745 1.43243398909089 0.4493313746711375  1.21583844477272 1.577015814015864 0.3132095878859946  1.215838444772721 1.577015814015863 0.7984919644564699  -0.5417914275481509 1.915579932427804 1.976213206297545  -0.8661308487873942 1.793899593441225 2.139898547378747  -0.4825469010551162 1.604778739237976 2.248606286116285  -0.5675414029076532 1.907768762799528 2.310604154105008  -0.6172573039521845 1.527663012585014 0.7568115375211687  -0.7241902094970518 1.860249866829585 0.5970171058409584  -0.7957056313745388 1.831542656400152 0.968695686484855  -0.4952605943774011 1.929694906355637 0.9453922269623236  -0.4884387264115697 1.139099113654056 1.126544463557179  -0.3062210261879658 0.9470741498457549 1.074219080140319  -0.9147073268807377 1.484424848781805 0.7088302423512367  -0.8498613270000585 1.483589061793089 0.9802076404296851  -0.2853549673443926 1.700886913653027 1.104138889279388  -0.2123882240535232 1.482184289043645 1.225617616727049  -0.02658809131062503 1.54954966453752 0.9999642928133845  -0.05886255948931285 1.740941905347605 1.262820980185163  -0.2138865254896242 1.717515417693679 0.5093261615003483  -0.4978026593669764 1.928923779371535 0.3776131738685569  -0.4749235197066546 1.671109030984674 0.5112323363784802  0.5759691911674569 1.379913410543353 3  0.5772402525064116 1.668048186229646 2.797497383652546  -1.631177197183697 1.149842608431994 0.5529837297134703  -1.312281776542028 1.049838637110655 0.6975454133751749  -1.416175508879305 1.051966082818243 0.4695970894849926  -1.468611635051501 1.347929319029267 0.528793610027684  -0.3532137397153774 1.648140941155261 1.686515757151375  -0.5675414029076709 1.907768762799523 1.641822258490084  -0.5946428181805948 1.54027895207176 1.89110289129796  -0.6563813884835905 0.7487360351343193 0.2787263624334433  -0.5667951625134506 0.8222575507383968 0  -0.7393489966610659 0.6678195279580799 0  -0.8674026472112387 0.9845104035481604 0  0.06228957929729534 1.763069020072102 0.9047605796749927  -0.01962555268867489 1.676227591432309 0.6849834654445722  0.2664856022096764 1.97375345906389 0.6769169287588106  0.3465300909440658 1.724729685604465 0.7135143331565388  -0.1858556935836433 0.9816948119170279 2.090314465585877  -0.3754279745754614 0.9260804515698235 2.013272307849831  -0.465967646250635 0.8793631927405553 2.363944234338541  0.5280529490250396 0.8461779070287594 1.879649787229252  0.7585124449030545 0.6444687987127938 1.617029807396295  0.500529746322371 0.8608893653703668 1.650796209957878  0.7030633448670989 1.021784321691119 1.759469098116709  -1.088686500193924 1.228593341630049 0.8863724562223012  -0.8254687922103758 1.236073256804179 0.6182246954994589  -0.07422757993891599 1.99268922148401 1.807460490734439  -0.04088525360617973 1.611212491846854 1.799941109133811  -0.2916418845632132 1.971275781511641 1.626758869038753  1.031766936443343 1.348283730697958 2.231342139160024  0.5985916833979833 1.188865338374242 2.184453435212432  0.800035887802124 1.513475040829179 2.352763204437822  -1.454001653846959 1.365731632635776 1.144642798574309  -1.606093854539396 1.180406749877606 1.250643688654142  0.759913133020082 1.035194937356971 2.333082585620538  0.7866876774335634 1.247079743530873 2.481715775958462  -0.5993538927977279 1.671856462584716 0.2274587724711168  -0.3970022116813246 1.959501260883113 0  -0.615292376451025 1.893283663336124 0  -0.0115970006368884 1.619661669778449 0.3674377621007673  -1.550860895813692 0.7743665571272234 0.6777793944735439  -0.6182587514821932 1.165370958219697 2.665290015038481  -0.7320725407980028 1.004497893960526 2.803796425403525  -0.7524293328985826 1.294280350741342 3  -0.9007277826353122 1.175814812694896 2.78884082742388  1.217261294322629 1.239502799576163 0.548585554698337  0.5398556083925942 1.108033836437006 2.451290255513662  -1.184565319612744 1.293675404619523 0.2202905124775362  -1.215838444772743 1.577015814015845 0  -1.392171882639736 1.432302701444501 0  -1.304005163706239 1.504659257730173 0.3254551914054048  -1.613044292607511 1.171937616587227 0.2971828751737157  -1.07715122928555 1.023555929625641 1.577076441888355  0.06419369235251568 1.225727509717291 2.453663304648281  -0.142574953272563 1.324806371060606 2.664518380891937  0.1481648227724792 1.271966546074806 2.72659392302712  0.1383367287699395 1.48654129520398 2.510062434088135  -1.501397742985334 0.8632673176568763 0.9405261858769782  -1.573174139018967 1.220519539300602 1.043890337845853  -1.305770183688084 1.16074792136184 1.039247410740563  1.127012452169609 1.649913422219541 1.695878052335813  1.008490171445048 1.717806950174296 1.461210836656988  -0.7494591463662317 1.613341355000463 0.5618157337620006  0.5251954187041239 1.502210039554575 0.3672943657036651  0.4169176159719862 1.268399547679171 0.4595456322107094  0.3514414906492516 1.417214237308218 0.2032825020734149  0.4424104725296565 1.133702607012028 0.2226731490322834  -1.00193631029461 1.481942181374718 2.75782293884803  -0.9854046110177546 1.73014643930235 2.523996521787849  -1.169012044660419 1.615445247438886 2.628292977551654  -0.985404611017755 1.73014643930235 2.73258943331546  0.6052985902680665 1.595631930509519 0.6450910128899614  0.7910476264195203 1.834032411919922 0.5388597629756304  0.6152923764509963 1.893283663336133 0.372472755438345  0.6152923764509992 1.893283663336132 0.705246770512919  -0.3062657882747472 1.648452071402617 0.8304665595928332  -0.4855865343507064 1.932629500381754 0.6286242734478376  0.7054437928571102 0.7084715604379123 1.933662416831976  -1.507328219677138 1.300753024164202 2.713336764402187  -1.165230715369792 1.205390575913933 2.689956132617993  -1.353416411825071 1.464108494370675 2.657241558346083  -1.436824986212379 1.386661462706364 3  -0.4979902395803728 1.678489304391771 3  -0.3963861489300569 1.651359416569772 2.700919976322254  -0.6185480316536364 1.683538496070085 2.764379096909264  -0.458396320522803 1.940877561573022 3  0.9530377358237719 0.9485576382829037 2.633905012019921  0.7356486580402359 1.003585213642121 2.784331418652878  0.7327145285287133 0.9602672604058995 0.9486177248287717  0.5344025260205703 0.8427839874160714 0.7878723257084586  0.4277494794611242 0.8997912284851736 1.035565639850067  0.6275104760499441 1.204798490702922 0.9921227376697574  -0.8902940105440038 0.9268628400035885 0.4731239699058822  -0.9776546061793429 1.008446268592044 0.2385980248694552  -1.156033771372998 1.098512560732226 0.3961799307077474  -0.7036434369288257 1.316482796637038 1.765323971810743  -0.7896227738217378 1.26606967100422 2.000569561053651  -0.9671165878588903 1.182630135800516 1.832231915196073  -0.6810565915542988 1.016669733136022 1.936667150823691  0.4373821781832744 1.172013029441896 1.175775162288291  0.5012785776910673 1.390458179553204 1.314161706832298  0.2714158791222486 1.659971775591717 1.705214535700857  0.4591243388667474 1.694941713426531 1.523356646315397  0.2496342166345127 1.9754131756777 1.610848910284687  0.4883261183152516 1.931798456671645 1.804979252832438  0.1713655010773994 1.239539359313271 0.830658565227589  0.206312465890568 1.511600485836241 0.8856669166948175  0.2493015756192 1.322778751398718 1.062429438019509  0.4184073581581774 1.215358561019962 0.728034
[...]
<PointData  Vectors="f_18"> 
<DataArray  type="Float64"  Name="f_18"  NumberOfComponents="3" format="ascii">-2.9962392670384246e-02 7.5157338171805449e-02 -2.3099021904315217e-02  -1.5051152058998358e-02 9.1305602006216222e-02 -2.3174831115831278e-02  -3.1311797891174754e-02 7.3197131313321298e-02 -1.6040541634768764e-02  -1.4480450970990051e-02 7.7754124341639932e-02 -1.9910441734190695e-02  -2.6110199223549628e-03 6.2129828570094983e-02 2.7467814737630707e-02  -1.3151244591683091e-02 6.3345288255241272e-02 2.0377263575306895e-02  -2.4721098746078841e-03 5.7712045535709591e-02 2.3634623107524223e-02  -9.3412762200085295e-03 5.6954810532168748e-02 2.3337753211260644e-02  -5.9684612721661930e-02 4.0607864959686053e-02 2.6016842770579334e-03  -5.0146102763965188e-02 5.0186202303156083e-02 4.0723977414321624e-03  -5.7455574011415746e-02 5.1062143166818112e-02 5.1212852238273618e-03  -5.6648863105093240e-02 3.8488593658455930e-02 6.1373107116437023e-03  -1.5359074511157270e-02 7.0158281435037967e-02 1.8399074053691847e-02  -2.6752338961631539e-02 6.0895689966664293e-02 1.9402188554438413e-02  -2.6865266808305872e-02 7.1190168303302048e-02 2.8877984691535432e-02  -1.4709814795912428e-02 7.5174509717740021e-02 1.2583020981449283e-02  -2.4172944160169373e-02 7.2303462681053199e-02 8.5364296437588187e-03  -2.5017147029328942e-02 7.9536350717804391e-02 1.5599912980205971e-02  -1.1439597678026185e-02 8.1507887895147971e-02 9.7751974898533465e-03  -6.8018552267184507e-02 5.0184937273496280e-02 1.1808399971002363e-02  -5.9528089033806658e-02 4.5330461148518235e-02 9.6324407462359939e-03  -6.8775204770178261e-02 4.4484379080059165e-02 4.5024693322904706e-03  3.4666539737589312e-02 6.0326829314753999e-02 -3.2259001577037713e-03  3.0510009396839795e-02 5.5838403685037993e-02 -5.0467439078345413e-03  2.3530406177604990e-02 5.9039450454619197e-02 -5.9123704821373102e-03  2.8919536807323107e-02 6.1911026425308685e-02 -9.6867919564841767e-03  4.3701559062106585e-02 5.6565839621852201e-02 1.7496842006756354e-02  3.5024657925644666e-02 5.4467644131878851e-02 1.4015109451583187e-02  3.3486606420176174e-02 6.2635821588074750e-02 1.6119040573342364e-02  4.4954251671569329e-02 5.2563419551245348e-02 1.2429358050945950e-02  5.0624222605250957e-02 5.4203471027489146e-02 2.0492715523333523e-03  4.7139714794621194e-02 5.7792437812610634e-02 6.9350219820936932e-03  3.9193916886947101e-02 6.7909875762843186e-02 5.1294403432455083e-03  3.7010211539098954e-02 6.1714129370746919e-02 2.0915148992479821e-03  2.1977945783595996e-02 6.0175337070983943e-02 -1.5508952014676442e-02  2.5603480508508622e-02 5.7816959702524144e-02 -1.9710795093708499e-02  1.3797043845362459e-02 6.2364636650277819e-02 -1.9569418933379313e-02  2.2547366386451655e-02 6.8842421782112015e-02 -2.4172185172790489e-02  -5.9672436064931653e-02 4.4101912052371690e-02 2.5755273811778209e-02  -7.1476797232157455e-02 3.6985656140534284e-02 2.4534374440656120e-02  -5.7646835850220658e-02 5.2274189105128252e-02 1.7447921560149012e-02  -6.2382725920941150e-02 3.5483267315275950e-02 1.8489555758345832e-02  -3.5413820763540452e-02 5.4984472298263261e-02 -5.1217827605248639e-04  -4.6616470164473574e-02 5.2638096680659309e-02 -1.4453341259732969e-04  -4.1082042708518431e-02 5.9389731692648204e-02 -2.5582457571248752e-03  -4.2003594741544296e-02 5.0126848521579601e-02 -1.2274682400763659e-03  3.9654022950504395e-02 4.3063574758303552e-02 1.3654720903697312e-02  3.3452927940313161e-02 4.5480900939447469e-02 1.5572403071913297e-02  3.6680719577156108e-02 4.9538182002121678e-02 9.7798514518986791e-03  -1.7877116622009297e-02 6.1600138096290794e-02 -6.3402405627324843e-03  -2.7904237248490209e-02 5.6286447989943846e-02 -8.6272144287071161e-03  -2.0035526169551249e-02 6.6011961811975550e-02 -1.2561826160663524e-02  -1.8041384900917105e-02 5.9164865824869795e-02 -1.1026178741388686e-02  -2.6397185679927705e-02 6.4645266740818955e-02 1.3315164361161962e-02  -2.2772663716513521e-02 5.7022185020369751e-02 1.2585247909162760e-02  -2.6313048310426811e-02 5.8286086089468656e-02 7.5563130841811016e-03  -1.6729225447456513e-02 6.1492148982080323e-02 7.9887383329726638e-03  -3.3511970462606060e-02 7.7041780063916918e-02 9.0075759975803416e-03  -3.0771156348066230e-02 9.0875790022692110e-02 1.2111014513645111e-02  -3.5428650966144289e-02 5.7000141936717749e-02 1.3209986355571962e-02  -3.5494267286583600e-02 6.0044121377808006e-02 8.8883514501284268e-03  -1.1941276512369004e-02 6.8749162545205536e-02 6.7504290584655055e-03  -1.1739843567168156e-02 7.4980262753295224e-02 5.3933959362135403e-03  -2.2427087968280748e-03 7.3228306058827519e-02 9.7451374687613120e-03  -3.4665723359318199e-03 6.9367633602947953e-02 4.5624319152829046e-03  -9.3081591571048620e-03 6.4866651249271934e-02 1.6388867097172199e-02  -1.5615912478880689e-02 5.6678746512971570e-02 1.4970056859242345e-02  -1.8342038618879002e-02 6.2501179933531492e-02 1.6448604899338481e-02  2.2662231133395463e-02 5.7054144739774396e-02 -2.7349158360466558e-02  1.8843203278663991e-02 5.6752271141333653e-02 -1.9997042370017711e-02  -4.9930653171740898e-02 3.5044450358700831e-02 1.3231809156619343e-02  -5.3582774711546349e-02 4.2895768781463589e-02 1.4002054651317413e-02  -5.1988492653214147e-02 3.8363673978887597e-02 1.6712366074440082e-02  -4.4977934966975955e-02 4.0959731774393424e-02 1.3356691414724937e-02  -1.5542142852142003e-02 6.8989212741163569e-02 -3.4565202517164643e-03  -1.9174883067253033e-02 6.1825818769496110e-02 -1.6663402983800400e-03  -2.6129525126370446e-02 6.6224444256346923e-02 -6.9495088505115129e-03  -5.8084731077317008e-02 6.5059076259145227e-02 3.5604909315052176e-02  -4.5832218405264712e-02 6.5317117936599112e-02 4.2835790490412570e-02  -5.9211552778880405e-02 5.3614196595830770e-02 4.2691972621365940e-02  -4.5194619944750603e-02 5.0649567439791675e-02 3.1912537283231589e-02  1.7287065264159213e-03 6.8170968513526095e-02 9.6233625114829496e-03  -2.4350199922012162e-03 6.8229776713713788e-02 1.3951791073810284e-02  7.0201499026171718e-03 6.1478897355040196e-02 1.1003639615229103e-02  1.1499878318870688e-02 6.4935598641716427e-02 1.2716922613839611e-02  -1.8438459546107795e-02 9.2780624828229241e-02 -1.7217242687530759e-02  -3.6087969323904449e-02 8.8215265987858463e-02 -1.4547118076955612e-02  -4.2963835688552714e-02 8.1064539319763110e-02 -2.4783592635587985e-02  4.9627765389721135e-02 8.0449683918648374e-02 -1.1224076453357990e-02  7.1754036942242222e-02 6.2259943043554269e-02 -3.7338190391931511e-03  4.6828978559734488e-02 8.2217295457862646e-02 -4.6005490535286596e-03  4.5749181560752285e-02 6.9179178482419987e-02 -6.2381965200776065e-03  -4.7283196780886431e-02 5.2597498429474046e-02 1.1040429691579394e-02  -4.0684936148616992e-02 6.0172765730896985e-02 1.7411584035621801e-02  -3.3119061862642118e-03 6.4145937919013435e-02 -4.1418696434592324e-03  -2.5904221286631940e-03 7.2744945817251591e-02 -5.1183899426567332e-03  -1.0460009422292684e-02 6.4043993186274753e-02 -1.7571026780084198e-03  4.0122229282594013e-02 5.4133255283565287e-02 -1.2565343587135963e-02  3.4010948914449390e-02 7.0022584908311022e-02 -1.5282878145022218e-02  3.0022013313813531e-02 5.8932857199785950e-02 -1.4433365935131792e-02  -4.7232378067235577e-02 4.3511737801490161e-02 4.9738968533008686e-03  -5.2194607854318786e-02 3.8074904202230510e-02 3.8976324461899078e-03  4.5763792541528091e-02 6.4051680465576050e-02 -1.9504843036265890e-02  3.7329675590368518e-02 6.0543154549533407e-02 -1.9184396801232340e-02  -2.1287499618998326e-02 5.6858995483990732e-02 1.9631864525862949e-02  -1.1559480051553972e-02 5.2191764630196910e-02 1.9524194983219292e-02  -1.7340298498187062e-02 5.0859750365455217e-02 1.9914631281597629e-02  -1.5864634095154380e-03 6.6069226962752761e-02 1.9633411391157599e-02  -6.0036527288620287e-02 2.9783465747076705e-02 1.4002706162311590e-02  -3.5165457084605445e-02 6.5389033274828146e-02 -2.4755737097727999e-02  -4.4057981642414930e-02 6.0207734207839134e-02 -2.9546778232421869e-02  -3.1370045310678371e-02 5.3627905164963546e-02 -2.7007107600935741e-02  -4.0820134859229036e-02 5.3032084554431917e-02 -2.3765414404175244e-02  4.4258583783740708e-02 4.6999950407356460e-02 1.5485413467760705e-02  3.3614305310011805e-02 7.1866139413543126e-02 -2.2879682250984728e-02  -4.1585585026152283e-02 4.4767508310734248e-02 2.0116716543952161e-02  -3.3452552118246999e-02 4.2513562674135356e-02 1.9886838877468310e-02  -3.7831734896897985e-02 3.8620730494151725e-02 2.0113411023227765e-02  -3.8198984568043770e-02 4.3920623103670717e-02 1.5832966987807003e-02  -4.7081836481621231e-02 3.3638423636983425e-02 1.6366629532929937e-02  -5.5351698279153524e-02 5.2521380198945269e-02 -1.3935550766760610e-03  3.4745543810326264e-03 8.0263732813023334e-02 -2.2805745030085714e-02  -8.5512800958059548e-03 7.3400374672513646e-02 -2.4941171852116892e-02  7.9703860993736043e-03 7.4272918395028156e-02 -2.7251801087690045e-02  5.5457915133293395e-03 7.0047346893252302e-02 -1.9513183208972881e-02  -5.9439356416805408e-02 3.4083873367287049e-02 9.4736357285268268e-03  -5.0301956248389172e-02 3.8972720148156934e-02 6.6580732009571039e-03  -5.1550146580834122e-02 4.5239913601731657e-02 7.9980146457034659e-03  3.5210923855941066e-02 5.3312678262804766e-02 -2.8037934217889303e-03  3.1564445876961243e-02 5.5949291522003883e-02 4.6129432086416055e-04  -2.7963269202524173e-02 5.8928819234284759e-02 1.4967767030621441e-02  2.0624067694960311e-02 6.2925230614774397e-02 2.0101868128792725e-02  2.2242262060229067e-02 7.1743367305074718e-02 2.2511712231627960e-02  1.4962911255446359e-02 6.5625692083825626e-02 2.4745181697716178e-02  2.6071330431044804e-02 7.0498334537513627e-02 2.9999167090943194e-02  -3.4150963387285481e-02 4.9831334122713081e-02 -1.8658977353701145e-02  -2.9931949574902285e-02 5.2129245806729750e-02 -1.3295480405412520e-02  -3.4744852833467559e-02 4.7254716631738559e-02 -1.4509223939885282e-02  -2.8578866307285726e-02 4.9848630964663833e-02 -1.5987913509645527e-02  2.2565703487396831e-02 6.2364506428577930e-02 1.4154832457784537e-02  2.2678463692262597e-02 5.5365130360097395e-02 1.2773556454444810e-02  1.6828893781964751e-02 5.5649694242157412e-02 1.4951249919756396e-02  1.7632456283435162e-02 5.8851751911105324e-02 1.0450637805387105e-02  -1.3741732805636713e-02 6.7707754009439874e-02 1.1899667444748832e-02  -1.5900278510757353e-02 5.9872980397157279e-02 1.1709887335855165e-02  6.5634068813814159e-02 6.7801529054873619e-02 -1.2241078466107044e-02  -4.3829472225527223e-02 3.7594732273201668e-02 -1.5660081300041487e-02  -4.4540610928106114e-02 4.5767843327162390e-02 -1.9461510777266332e-02  -3.9864379881139202e-02 4.2608125156218049e-02 -1.5051840536161537e-02  -3.8631360445697489e-02 3.7304307885625082e-02 -1.9195688885221576e-02  -1.6738212346828762e-02 5.4879407429777961e-02 -2.2840249022278249e-02  -1.5587136226649367e-02 6.1292951214834392e-02 -1.9261551945585195e-02  -2.1317520721694544e-02 5.6278189510746021e-02 -1.9089724981959495e-02  -1.2776305084422471e-02 5.2070086761350026e-02 -1.9607928504944486e-02  5.1030260174010890e-02 5.2154387369031906e-02 -2.3982412908253939e-02  4.2841560818815558e-02 6.0415062472374950e-02 -2.9630242113939650e-02  4.9452791810378441e-02 6.7208147512424071e-02 1.3496978213164581e-02  4.7420543286332960e-02 7.8970432730837162e-02 2.0760095710853726e-02  3.8971837281788407e-02 8.6812935013732551e-02 1.4046576221670505e-02  3.4381953249122438e-02 7.0498446360024836e-02 1.1079317195815466e-02  -5.4177820861234564e-02 5.5793603387366941e-02 2.3280076937549885e-02  -4.8878579296668702e-02 5.0046857144083218e-02 2.5475525651675855e-02  -4.9037261052489858e-02 4.6115155793425129e-02 1.9770113485472560e-02  -3.6376395838855137e-02 6.6719288580145544e-02 -5.1445042722438432e-03  -4.0127534550694274e-02 6.3317099832118778e-02 -9.6857993093546185e-03  -4.7642567006199038e-02 5.7599526477785552e-02 -6.5577417847926282e-03  -4.7502484809694101e-02 7.0207624808360972e-02 -1.1076033865995070e-02  2.7948877035657543e-02 7.8460080636767932e-02 8.1061129530691969e-03  2.4869708292446450e-02 7.1596973781255721e-02 3.8245477446690788e-03  1.0362996651155391e-02 7.0059934450584838e-02 -3.8349154912171767e-03  1.7104434940606986e-02 6.6858995479472771e-02 -4.3221318666618102e-04  7.4695001261572266e-03 6.4607904187840251e-02 -1.5529555512739076e-03  1.4912563237136833e-02 6.2459730462946603e-02 -4.4178885656539950e-03  9.9174618667797095e-03 8.1350646807107213e-02 1.6161633716094886e-02  8.6476434453404607e-03 7.2812117708650342e-02 1.2137756206034352e-02  1.3819524300671373e-02 7.8389827810329021e-02 9.7395412877645665e-03  2.4293007981615489e-02 7.5528895782063010e-02 1.7803419489907196e-02  2.0617361377410746e-02 6.8031916678960136e-02 1.0169507309210216e-02  3.3482148538692948e-02 8.3847907514380135e-02 2.7191669951812665e-02  1.6638725949634250e-02 8.6301940570112964e-02 3.2803691111644308e-02  3.4966397536563193e-02 7.8477213243468458e-02 3.4902618403079864e-02  -3.9805456293433246e-02 6.8603138900637517e-02 1.3132084157921753e-02  -5.4418448546779567e-02 5.9839787720068864e-02 1.0697655421080287e-02  -4.3718820757864395e-02 6.0984954665674357e-02 6.2771379218810024e-03  -3.1806502594503919e-02 6.0259562235064790e-02 -9.1322098417391320e-03  -3.9365621758129542e-02 5.5840353898806989e-02 -7.2537725779463812e-03  1.7827477988227734e-02 6.6415921246639295e-02 -7.8551342332516400e-03  1.3067571972632698e-02 6.3547691054135144e-02 -1.4888166959860264e-02  2.1339726719721556e-02 6.7027258560063627e-02 -1.4882106195268571e-02  1.4330287760382743e-02 6.1939126595017976e-02 -8.6647543335015252e-03  -4.2008664942950753e-02 4.6740987003436429e-02 1.0543922798401339e-02  -4.2207829045517391e-02 5.3992057319909512e-02 6.7081765310139695e-03  6.3405528550181407e-03 5.2774007764406917e-02 1.9511980361227893e-02  3.3554295939922893e-04 5.3594494821091847e-02 1.9861710650186219e-02  5.6357104498848450e-03 6.0776512650485712e-02 2.0531925050480720e-02  -1.5839414601824186e-03 6.1645243609108551e-02 1.1480956207604391e-02  2.6170792839782376e-03 6.2934156251499965e-02 9.4939921455023616e-03  -9.4543436551512306e-03 5.9269338957672363e-02 1.3911551536919803e-02  -8.9717231727293838e-03 6.1505920854129183e-02 1.0542060642952635e-02  3.2320177131690553e-02 5.3735680601808562e-02 -8.3897210272902371e-03  2.2454147931045366e-02 5.6945802728339691e-02 -1.0829142032905128e-02  2.7356268949496606e-02 5.3465100184263696e-02 -1.2939465693263832e-02  -3.4389319786124667e-02 4.1183547210143980e-02 -1.9367801034459495e-02  -2.9621372887952635e-02 4.4887681721002957e-02 -1.9305892697790372e-02  -2.9843203555765994e-02 5.5072160821781992e-02 2.7036961663549679e-02  -2.1997993203327175e-02 5.3803945063648842e-02 2.3688888633868550e-02  -2.9355077749639275e-02 5.3565497700054476e-02 1.9249080613338739e-02  -2.7751201548960975e-03 6.3555145852581471e-02 8.1820113847740610e-03  -4.2933847542690209e-02 5.0642829421408325e-02 1.5081351915086172e-02  -3.4289044910294643e-02 4.9533093113150482e-02 1.3606660044392342e-02  6.2287330244627215e-04 7.4151137314148102e-02 -1.0194054973532755e-02  6.2593857887472846e-03 6.8605764710803485e-02 -7.7937371167963810e-03  -3.3267149041842671e-03 6.8075245412544949e-02 -9.5931490807158633e-03  7.7133040526813443e-03 6.8001190381446558e-02 -1.2495054424461400e-02  -5.5360874094337216e-03 7.9744049137908030e-02 1.6808843367046192e-02  3.3901139305466142e-02 4.8443327576664488e-02 -1.3387824668764179e-02  3.4767374172682025e-02 5.3155973540343231e-02 -1.6641007914847177e-02  -5.0116475438864291e-03 7.6226587800840531e-02 1.3638455166914087e-03  -9.5296492392743706e-03 6.7987505244413243e-02 6.2917803699238223e-04  1.3804913005829435e-04 7.0246514938936438e-02 2.0150926790555952e-04  -4.6605554386663320e-02 6.8107506155888980e-02 2.1539190194894996e-02  -7.9871532301177703e-02 5.3953463249679680e-02 -1.8548260898054508e-03  -7.2294667899076639e-02 6.2307876315967278e-02 5.5710501189531305e-03  -6.8004199579891345e-02 4.6011769784863779e-02 -2.6201937966138528e-03  -5.8926943014661726e-02 5.9877231304102281e-02 -3.6873284655778195e-03  -2.0640051723644578e-02 7.9193498103719132e-02 3.3501423502983146e-03  2.3747284804280924e-02 7.5144924309217639e-02 4.3322766445426722e-02  -2.4205138950195011e-02 6.2715503343802742e-02 -2.3460476828979979e-02  -2.3251878546605011e-02 5.3118414579715154e-02 -2.3489388058867383e-02  -1.7850771460471912e-02 5.8250807219413434e-02 -2.5421292547830172e-02  2.7260449949661663e-03 6.0959390691864589e-02 -1.2000747069703579e-02  9.3575926855034887e-03 5.8983825472030176e-02 -1.3438820321511113e-02  -1.2576349999293430e-02 8.3252870487745115e-02 -1.1223828546175893e-02  -1.1076360613886980e-02 9.4944408527098886e-02 -4.6236435371706380e-03  -3.5021376940301017e-02 8.9330306677434801e-02 -6.8584521232232971e-03  -1.5120684672308990e-02 7.9584118189737610e-02 -4.2664642377210132e-03  1.2317867206672552e-02 9.5259009609755696e-02 3.2493014628481786e-03  6.9822763571310946e-03 8.2048005630700180e-02 4.2620928159993153e-03  -1.9280527298376827e-03 8.4111371746828575e-02 -1.5405396842875091e-03  1.3934637558246168e-02 7.8454076468136083e-02 -2.2208311097515598e-03  5.3171305430691290e-02 5.8176674200302959e-02 1.7930421318888199e-02  4.0661600957180660e-02 6.9182869388071486e-02 2.1761889171553053e-02  5.4532974430526841e-02 7.0910329680447290e-02 2.7955477581010843e-02  9.8526363514502783e-03 5.8752553958875901e-02 -2.5135021536923072e-02  -4.7735385627215694e-02 3.8456699734191316e-02 1.9977907556526470e-02  1.8128586097556354e-02 8.8234056953336235e-02 -2.8157423306580207e-02  1.2160778837523338e-02 9.1903579221392445e-02 -2.0553760625718061e-02  1.8021021217049214e-02 7.6690936685053071e-02 -1.9042089245123295e-02  3.5469990519447894e-02 8.4818986225278128e-02 -2.3302085300696572e-02  2.9875606237853153e-02 5.9685942126262576e-02 1.1479082995880650e-02  2.4887031296907086e-02 6.2517458488998687e-02 6.7574988089927094e-03  2.0873611818709288e-02 5.9693847593355789e-02 7.6738225402029209e-03  2.2293316808907799e-02 5.2291291037932071e-02 1.5900847231067307e-02  2.8522596828325749e-02 5.5045545607262256e-02 1.9739733778893064e-02  3.9150827845481385e-02 6.3346411331678010e-02 -7.9535846818807598e-03  4.6125677147263663e-02 5.2875511038391956e-02 -2.1997211579914649e-03  3.4549750720273185e-02 6.7688320418805598e-02 -3.5793959901263979e-03  -5.3783814209515404e-02 3.6305362708367366e-02 4.6308722516193981e-04  -4.7846058080538260e-02 4.4505259240164532e-02 1.1246027927585764e-03  -5.2784297582778833e-02 4.4968151789252550e-02 -4.9587606360698808e-04  -3.7467604843334744e-02 5.2731298929195383e-02 1.9607717369512279e-02  -1.2589287184106851e-02 5.9078925768279507e-02 -1.2705245635286177e-02  -8.6018602960371247e-03 6.7929671900971156e-02 -1.4987937634991176e-02  -8.7799938858531112e-03 6.2406832774623062e-02 -8.8657365062860954e-03  9.1625868930353318e-03 7.0679901452132501e-02 2.3977397594770970e-03  -3.4554722608874443e-03 5.9829822512206539e-02 1.9547188141022551e-02  -9.2688206959459160e-03 5.6489538409181007e-02 1.6613748159032393e-02  3.4556032811850365e-02 4.7650850259960964e-02 2.5380215860204756e-02  3.4963167919157184e-02 4.7099348584096298e-02 1.9765605858021756e-02  3.9315705833461646e-02 5.1919669420485606e-02 1.9365993259821076e-02  4.4741090232797036e-02 4.5086720156215031e-02 2.2231146839334762e-02  -3.1094300191365228e-02 7.1134749826033863e-02 2.2041182536235947e-02  -1.1203787443557930e-02 7.3369912876267401e-02 2.6663379126236050e-02  -1.6823609951638129e-02 7.9738826289378492e-02 2.3623450032641550e-02  -3.0638956724460754e-02 5.7058319407620864e-02 -1.9482991186571270e-02  -2.4378859565682916e-02 4.7882343228089187e-02 -1.9207695779642247e-02  -3.9297622549308922e-03 6.3860775463816119e-02 -2.0089229950318199e-02  -4.6148136574762265e-02 6.8305875503331573e-02 -3.6365730081543879e-03  -3.1748079009796114e-02 7.5514046323099410e-02 -8.4159011453863314e-03  5.4474858258472758e-02 6.3581640175752616e-02 5.1780852809935390e-03  4.96