<?xml version="1.0"?>
<VTKFile type="UnstructuredGrid"  version="0.1"  >
<UnstructuredGrid>
<Piece  NumberOfPoints="1566" NumberOfCells="7170">
<Points>
<DataArray  type="Float64"  NumberOfComponents="3"  format="ascii">-1.512359285644334 1.068376000829444 2.428131023737984  -1.373880728372479 1.138645178772328 2.501427686586783  -1.522712156704078 0.91069105861823 2.495322883648988  -1.338135527099882 0.9610917329772711 2.485363916417126  -0.08105766249146665 1.51490851366465 2.300580605903318  -0.1264137403891327 1.623832570965264 2.451224456478201  -0.2543581781992574 1.627757969062994 2.308992231366099  -0.3016331384581181 1.536607458103908 2.489088673277483  -1.063576882125053 1.158340932349984 1.567789034934107  -1.026505393177837 0.9973815627868937 1.753819374223778  -0.9391044759676777 1.173782283996075 1.722687442616744  -1.188572675247871 1.128656378010582 1.764856318213784  -1.236463680228346 0.5843272210989572 3  -1.083088873069132 0.5816338069539708 3  -1.2322788547395 0.430985859469061 3  -1.086830741578042 0.5144942931992081 2.792827961877503  -1.684867610180715 0.7196825145120627 1.492204237068317  -1.603332406811842 0.7771600314591464 1.651644619732335  -1.866500620541251 0.7035842360368104 1.538282268106518  -1.719563008963503 0.6773293529237138 1.763252782696964  -0.4840677488885385 1.36002765996548 2.055996145982026  -0.67696777816034 1.163669587031098 1.986530690785929  -0.5884110214657677 1.285141746091693 2.215825927141724  -0.7898334822649098 1.294613287863109 2.093496633045264  -0.2267567149134798 1.513183490544626 0.4293770836378363  -0.2526967854776053 1.466461901023554 0.7244472697693704  -0.05368123014705692 1.522627891634968 0.6186802301191092  -0.1940693391355877 1.614031180124887 0.658093047244721  -1.320126265242179 0.4761884245358196 2.23060000235975  -1.418309889587639 0.3367776497620777 2.301487421637401  -1.550346573869616 0.4460667938087018 2.354424371718915  -1.54120465150066 0.4855765353840453 2.179680189376256  -1.066251447381203 0.9771681051469477 1.020406983681771  -0.8897116341221156 0.9062885361281463 0.8585034766986818  -0.9039902440925702 1.02045575882443 0.9856694410234375  -0.8704805934261621 0.7935001357442195 1.041365548800874  -1.394976770303369 1.023695423856162 1.353661893518067  -1.539330023610381 0.9836157207883699 1.221107146644132  -1.569606611745384 1.224866583861095 1.294722001321764  -1.353190869454159 1.168567846943077 1.169303413777984  -0.5829747950909114 0.8089792694386743 0.2501111363532545  -0.5527650200038382 1.01919813386297 0.3622080827136206  -0.589889619238378 0.8033044199185385 0.4182739102737424  -0.4459727035722207 0.8900507122648655 0.4072403527329742  -0.4379351919692966 1.071817927875505 2.274393628348585  -0.5563420448440157 1.134842547134765 2.429446295647148  -0.3912840857067477 0.9192823875237183 2.424995508699585  -0.3335693971529946 1.180859189287922 2.503146507666767  -0.8028907507915748 1.158654476938999 0.9762236647563317  -0.8601986046786221 1.07797107201586 1.175698568965796  -0.7258428369259003 1.326592728219886 1.188279032467483  -0.8650493200261411 1.258243596722877 1.251740412119593  -0.6711943941782386 0.7365793155322974 0.6707812560842432  -0.8717216159126097 0.7888283201043974 0.6812536006502942  -0.7949831001402083 0.6000291767258183 0.5795768915102262  -0.7632408748660222 0.6387071901324219 0.8885851873064419  -1.303525959393078 1.008957681467992 2.821699658601177  -1.475224080494848 1.1275728344032 2.839763436652184  -1.478419190010523 1.052406439333726 3  -1.377680078066836 1.133688224062772 3  -0.7074071306008063 1.653232600095123 1.658738875968411  -0.9470569184372591 1.521772831806486 1.585936053982168  -0.8950865244575194 1.778422462346563 1.522550112776621  -0.7693247425129737 1.55575400790413 1.459207815025761  -0.9009915418654538 0.8213678667939238 1.45545586051774  -0.8354187318407112 0.5481819500212671 1.3486608555629  -0.8404360311336867 0.7710032083354645 1.294559274337044  -0.7405643564171189 0.6663386078104714 1.494707821658598  -1.648344693077304 0.6011025854376804 1.350861508518786  -1.899753594986534 0.5939638701575974 1.397328069751199  -1.784828026238943 0.442232604956962 1.295448572619124  -1.750638950092724 0.4500306691122254 1.464538584725868  -1.132550535986404 0.3430978019697516 0.7848312797774391  -1.153173723095025 0.4507441257620955 0.9823662125386918  -1.224727799811005 0.556065024013557 0.7399146624727214  -1.348854712070817 0.362379588235927 0.847071240095107  0.02079688448292044 1.709516726690139 2.241736760493555  0.1121102211353898 1.764279348656659 2.032083250566018  -0.01810964665879883 1.839324329416937 2.126833305130287  0.1836755725228448 1.797431530106876 2.225454340480363  -0.9817305299818961 0.1854930419851196 2.80858669587202  -0.9613540494157377 0.2591465060377245 3  -0.93919290362029 0.3322020131291865 2.778236821839796  -1.135419156382061 0.2995624039461791 2.831503731540924  -1.654346196626482 0.287026970495564 1.573218555001811  -1.710569032871657 0.03525209734541723 1.419720318004083  -1.579259182704968 0.1028946378682416 1.530293613849783  -1.830824005844763 0.1046415529473994 1.564753818862917  -1.848868192691672 0.2255011966204679 2.842708277928178  -1.613211426532041 0.2906706621598937 2.846574292854164  -1.793314984088157 0.1457733806817882 3  -1.738014490017864 0.2306309372485909 2.739437656599711  -0.5516480352380864 1.029120817801377 1.368980473870488  -0.5431295452175143 1.204659910521205 1.387824879554503  -0.7680119074600098 1.169087798304336 1.452980962969876  -0.6012673443143963 1.150719094979769 1.559123094777308  -0.1860846989343382 1.197534432774625 2.275715367782488  -0.08132127817945439 1.202170177162092 2.492115975178085  -0.2115743418700221 1.365903019796616 2.413408597933864  -0.4331201389868656 1.948545007416206 2.176768593965149  -0.3595898987504701 1.794382151977767 2.111930572616453  -0.2657273486410222 1.973828140521968 2.062295969268442  -0.287150639622915 1.971718130528632 2.212920019066369  -1.120380115997378 0.2709279843825851 1.092965622275283  -1.174846131184365 0.1281103023819057 1.178447001214502  -0.9872104666735122 0.1298543110418333 1.142813713290783  -0.9715111461463679 0.2256630454313846 1.279871075758558  -1.221406375930689 0.7010677624180882 1.714588965979506  -1.069086972991872 0.6472616042039866 1.9001917198163  -1.21581768183938 0.5096871638306774 1.715809676841256  -1.026889582524904 0.5747099426470559 1.718844985038571  -1.500046636690312 0.6511983433173043 2.652878239817775  -1.280462873881552 0.5611000585968593 2.589726316367086  -1.317224797674452 0.8072282167868614 2.579967034865727  -1.314708842195148 0.5900900290351704 2.790254164214297  -0.9000356982076541 1.551959042762167 2.285094721390822  -0.759949005325542 1.668264342091573 2.246485915968052  -0.8654855761973108 1.527323349220818 2.026058129343397  -0.9124540523587208 1.769139325279435 2.105223466441561  -0.8381438117678921 0.5430836840659032 1.824125951257891  -1.02567547406104 0.5607163657933112 2.0872299529282  -1.063555062908119 0.4537636020790649 1.929944741624164  -0.9066803369393559 0.4148608640688031 2.040553143157413  0.1080761681434303 1.480138401096196 1.652661860169011  0.2713160093647587 1.57680453684485 1.605392433315053  0.02545917687942421 1.64403955087008 1.638914346915362  0.2268606909454772 1.69098853561316 1.81615258131728  -0.1356625137389726 1.517190082621389 1.922079691874627  -0.3522052510297132 1.44325238826618 1.755157615319526  -0.1506435099060925 1.303468135505971 1.743425178974412  -0.3477315275487176 1.310530844857478 1.886868319297013  0.07732649324291624 1.992384005163817 2.379869606865292  -0.05282494455365808 1.994797197078646 2.252366004816461  0.1920124050303416 1.981088428766578 2.25236600481646  -1.299955573044219 0.4284614161390293 2.843266799967925  -1.330010460854237 0.3113309244676917 3  -1.44170287492267 0.3513156457864813 2.787517005943119  -1.397591169423041 0.1532619672673007 2.852035985715782  -0.8595214950943791 0.745822043079533 2.375824388704775  -0.8500827867401941 0.5207474329210794 2.522067809931711  -0.8113652290523194 0.5800674948897742 2.315628584320808  -0.6959315071126867 0.7162780916006626 2.50824794066789  0.06597845096927575 1.856259202479849 2.827610697986431  0.2021417794383948 1.980090772465998 2.795143629092942  0.1269262336008511 1.987498857129813 3  0.2773573252759385 1.972682687802183 3  0.3162020966836113 1.807363629656092 2.421108667560982  0.324229418788003 1.968066189533892 2.369562933349386  0.2021417794383949 1.980090772465998 2.497375511848247  0.4526247923902359 1.942628335491383 2.494397330790787  -1.227443449415623 0.1454150551403234 2.761308802275189  -1.068498663222117 1.239596925930656 1.810778062920043  -1.13142505087883 1.318733200972373 1.947204232999808  -0.9321066126238446 1.355562557839457 1.990983145616349  -1.013715929575068 1.48195642563041 1.882217425790587  -0.6977357490419844 1.240686280652601 1.840045324978901  -0.5097498161456381 1.217124616529186 1.884025345778757  -0.5367566931794837 1.040353951422464 1.921914199158642  -0.8651263220786662 1.011548688253175 1.621998347337277  -1.263237108864204 1.332955873480557 1.107268159684285  -1.281931581244882 1.32617940248162 0.8604699638410789  -1.412549368986485 1.415579330589324 0.9293949754590489  -1.269940341461703 1.532615534859612 1.0393643556771  -1.528604792361949 0.6510125707927902 0.4137519986541968  -1.663488019023056 0.6184567391818717 0.5284696851202717  -1.597563810130646 0.5272542360787286 0.3168378531666981  -1.583171043930787 0.4601552881828206 0.4859730370942414  0.1434837084762022 1.438073980697882 2.267405058882114  0.03042515779325874 1.636632044880287 2.392682333926413  0.03651505984485719 1.487013235889365 2.46862028041943  -1.150503102694987 -0.009486454117872481 2.433383128829324  -0.9909921716418888 -0.09145801614223822 2.497860943369288  -0.996701613173816 0.03348908345049124 2.329370304303835  -0.9919588742614237 0.08164291973195234 2.50013261989526  -0.2246018834920384 0.9718330461014388 2.435
[...]
<PointData  Vectors="f_18"> 
<DataArray  type="Float64"  Name="f_18"  NumberOfComponents="3" format="ascii">-1.6222580278350416e-02 1.1406615073648506e-02 -4.4109243026215330e-03  -1.5464596846503979e-02 1.2759405415417091e-02 -4.9321625841332144e-03  -1.7289598748995584e-02 1.0278214352183760e-02 -4.9369559900120140e-03  -1.7165295928065941e-02 1.2276834074797228e-02 -5.2860985294956031e-03  -1.1938903275281547e-03 2.2550964810282990e-02 -4.7171830248318907e-03  -1.7249059598362293e-03 2.1237456528959031e-02 -5.1923155400309768e-03  -3.3445093409564513e-03 2.1243980494286493e-02 -4.4009870222810905e-03  -4.2708345868068759e-03 2.1259430862159572e-02 -5.5752554554727466e-03  -1.5644094465028121e-02 1.6929818929677171e-02 -3.7475710043360780e-04  -1.7352231080861286e-02 1.6845486966536441e-02 -1.5423470148720054e-03  -1.4855000003187718e-02 1.8362258949257252e-02 -1.3263641237395505e-03  -1.6285393963031140e-02 1.5414379588221911e-02 -1.4049319330475939e-03  -1.9133386236227123e-02 8.9742661020874286e-03 -9.2021397670150260e-03  -1.9974798591404840e-02 1.0684012446622140e-02 -1.0431050444062244e-02  -2.0535622907033892e-02 7.1727844508656519e-03 -9.7125092537439298e-03  -2.2131371782120303e-02 1.0403301657610163e-02 -9.3611128190212514e-03  -1.9435412441516968e-02 8.2459404825659943e-03 1.2672242184648809e-04  -1.9280739811075549e-02 9.2745013144606824e-03 -7.3544622632973073e-04  -1.8930722155696463e-02 7.0746878494503344e-03 -1.1555315769830114e-04  -1.9486371594799878e-02 7.6396327027556978e-03 -1.2788617993956212e-03  -8.0363628779286378e-03 2.2368999027853741e-02 -3.4655582700750553e-03  -1.2694399232724246e-02 2.1616172075176521e-02 -3.2611158059836164e-03  -9.9732695858665860e-03 2.1754542274026900e-02 -4.5112154321620126e-03  -1.2072194478550661e-02 1.9648698680654237e-02 -3.5198144665168699e-03  -3.2728257739772526e-03 2.1554239944446166e-02 6.2330077449035855e-03  -3.9677463243021653e-03 2.2672493342193512e-02 4.7976811298820138e-03  -8.4886596920253157e-04 2.2384058945397068e-02 5.2884057878263974e-03  -2.6516147965390193e-03 2.1517685012944675e-02 4.7373738406429975e-03  -2.2558078091292445e-02 8.1278862271022458e-03 -4.6728127295358078e-03  -2.2638296003144081e-02 5.3810043432880247e-03 -4.9123650403276181e-03  -2.0911518335821302e-02 6.0535181567721377e-03 -4.7138289984437016e-03  -2.1027289197679336e-02 6.6161047554638090e-03 -3.8088986034730721e-03  -1.7602741705554495e-02 1.6141524290702151e-02 3.1223097977917838e-03  -1.8052417257828850e-02 1.8266636140774860e-02 4.6298199762668359e-03  -1.6424938677162434e-02 1.8482149751155037e-02 3.4319037293038496e-03  -2.0221354523498648e-02 1.8355939542767097e-02 3.5947601038341160e-03  -1.7571170058824314e-02 1.2876555730727272e-02 8.4755208864405272e-04  -1.7727437144557441e-02 1.1306470412842938e-02 1.5309183264906722e-03  -1.5963235462716503e-02 1.2382677421990715e-02 1.0108600734921808e-03  -1.6155780261610971e-02 1.3920612400689068e-02 1.7758702156581878e-03  -1.6228776566679079e-02 2.2625529121861249e-02 1.0933645165042099e-02  -1.2328416639406989e-02 2.2650355663558042e-02 8.8049991406886786e-03  -1.7004018175078302e-02 2.3141397514594663e-02 9.5088544583922414e-03  -1.2933179122616201e-02 2.5644223239835895e-02 9.5889964185287488e-03  -1.0237867443246116e-02 2.4928646725087721e-02 -5.9727807856396501e-03  -1.1036420338159781e-02 2.2526068354448817e-02 -6.4834719883749593e-03  -1.1574519448001988e-02 2.6838775266935056e-02 -7.9862055155932431e-03  -6.9664098781470375e-03 2.4353694525102512e-02 -7.2370810406730719e-03  -1.3840998837744280e-02 1.9906165577640803e-02 3.4953788009476293e-03  -1.5521699546839556e-02 1.9327740276120380e-02 2.2182513623652768e-03  -1.1300701927565417e-02 2.0500066918066762e-02 1.9892821871353070e-03  -1.3208166167792169e-02 1.9219613740204335e-02 1.5892354012056022e-03  -1.9969528294618316e-02 2.1979574430364499e-02 7.2053877543612676e-03  -1.9776143016409106e-02 1.7906159470760189e-02 6.3579022324620205e-03  -2.3574024344601881e-02 1.7477812558698892e-02 8.1000909098554695e-03  -2.3065999996287972e-02 1.9400918677063395e-02 5.3435176820587774e-03  -1.5645305849897831e-02 1.2007629295997574e-02 -6.7990065910838032e-03  -1.4598029675750922e-02 1.1121861853864004e-02 -6.1692112011519700e-03  -1.4666687948399799e-02 1.0365735115865056e-02 -7.0221748863506447e-03  -1.4039355094559138e-02 1.1466659240102992e-02 -7.1068395678330915e-03  -8.4282932971590698e-03 1.9580244530887626e-02 -7.0069954645805485e-04  -1.1282871069615549e-02 1.8138769623762055e-02 -3.5198878204710640e-04  -9.1135227159239926e-03 1.7996501357064293e-02 -2.3612499952557225e-05  -9.6598333279682910e-03 1.9467717564179959e-02 3.0761086545829996e-04  -1.9865168990743486e-02 1.8083588152996669e-02 3.4776410068287336e-04  -2.5551405423510452e-02 1.6828530054048309e-02 1.3774171927143988e-03  -2.0643822915909157e-02 1.8918916240613787e-02 1.7083805453340498e-03  -2.2846025057595358e-02 2.0608023793258639e-02 1.2547501922639375e-04  -2.0299940643517558e-02 7.3858413068416768e-03 8.5646226692513922e-04  -1.9264332825216973e-02 5.9715067828497968e-03 5.2967456305989152e-04  -2.0398209929725415e-02 5.0704408249011837e-03 1.0828010689071311e-03  -2.0577047500671550e-02 5.2956524719202543e-03 2.2184067756978135e-04  -2.5550306563448470e-02 7.7514762610232449e-03 5.5615705646813746e-03  -2.4510258819257925e-02 9.5647678986215227e-03 3.9322420726690755e-03  -2.2410783758140922e-02 1.0195817196132913e-02 5.1575295952634723e-03  -2.3345367585969310e-02 6.2502711134061351e-03 4.3116190799595963e-03  1.8347664231645070e-04 2.1202247854479158e-02 -3.8963453209636904e-03  1.2901917694456992e-03 2.1104989450207310e-02 -2.6831454983651886e-03  -2.7696920977788968e-04 2.0544069074065273e-02 -3.0329638121278603e-03  2.0117822277112940e-03 2.0435409419364971e-02 -3.5723839967015526e-03  -2.7015780679437794e-02 5.0222755027731171e-03 -1.1297153493520696e-02  -2.5047785881626396e-02 6.6947458915275898e-03 -1.3026114780561728e-02  -2.6146999280263174e-02 9.2126892501615699e-03 -1.1119244604036136e-02  -2.3804626495308744e-02 6.2712015942195968e-03 -9.8758750054130928e-03  -2.1901849272275477e-02 3.7891134003122102e-03 -3.7400588546341852e-04  -2.1920797052632772e-02 4.2373192087975906e-04 4.9871080170176224e-04  -2.2887618239463160e-02 1.5268654055771659e-03 -1.3266151952158798e-04  -2.1038799153757001e-02 1.2022536383852291e-03 -2.8417835841300804e-04  -1.8210385726039592e-02 2.1868932300395218e-03 -6.1817314704237158e-03  -1.9435429374877862e-02 3.4851584782764405e-03 -6.9801175535834561e-03  -1.7998441656336295e-02 1.4101070177694258e-03 -7.0845740910261178e-03  -1.9285058733643487e-02 2.5031555485802693e-03 -6.1046275169917390e-03  -1.3130069505036869e-02 2.4297269163513331e-02 1.0716014674299562e-03  -1.0568896469180987e-02 2.3311296530847819e-02 8.4531425196628335e-04  -1.3549004995411376e-02 2.0575955450074332e-02 3.7077568718242365e-04  -1.1975785323764350e-02 2.2896632774340803e-02 -3.2009669413262851e-04  -4.0595863052573919e-03 2.5841262797334074e-02 -5.6823117866650289e-03  -1.8005790943584352e-03 2.5630794070338678e-02 -7.3324613544733250e-03  -3.6947242033165879e-03 2.3458870933814147e-02 -5.8919060825124965e-03  -4.2725271545733445e-03 1.9032838039330226e-02 -2.9547969103806489e-03  -4.0741299484215766e-03 2.0197538053590754e-02 -3.0055548722248203e-03  -2.7056018045232559e-03 1.9625083682110352e-02 -2.4620532036726066e-03  -2.9118450275578446e-03 1.9281554811386065e-02 -3.0938305346476782e-03  -2.6957815515309565e-02 6.5443399932000662e-03 3.2578194095537129e-03  -2.7164817780542833e-02 3.0082896182682378e-03 2.4895821746381826e-03  -3.0421437249524681e-02 4.0397526096874296e-03 3.1967662345468205e-03  -2.9790576352825456e-02 6.9576453531692449e-03 2.0249402031907982e-03  -2.1292779514756045e-02 1.2208482603704551e-02 -1.2993889330370919e-03  -2.2508902643995729e-02 1.3638658865412287e-02 -2.9258403580178912e-03  -2.3609282333304386e-02 9.8929335097222258e-03 -1.4243711173713822e-03  -2.3892674293286589e-02 1.3400018425787629e-02 -1.6412095069808584e-03  -1.8886772730050634e-02 8.1460776352304722e-03 -6.1204411818382692e-03  -2.1047320016704583e-02 9.2349469575088716e-03 -6.8292260414301318e-03  -1.8447489692768292e-02 1.1266849396700652e-02 -6.0848523332942559e-03  -1.9822440968291204e-02 8.8842304991524311e-03 -7.6289750052880075e-03  -1.0329178079139282e-02 1.7738311577613613e-02 -3.9081558346513359e-03  -8.4875361553421579e-03 1.8505962501568145e-02 -3.5892805703026300e-03  -1.0553728940935416e-02 1.8523608373664249e-02 -2.6763619097122993e-03  -9.0690499862792241e-03 1.7512164702637209e-02 -2.6448905847913443e-03  -2.5595443104887709e-02 1.6547375058371849e-02 -2.7187097534262347e-03  -2.3842155797820213e-02 1.3002117412862137e-02 -4.4521882653841454e-03  -2.5337352447073479e-02 1.0876083194819483e-02 -3.3335089777255340e-03  -2.7610324534307965e-02 1.2586240218704138e-02 -4.6879116481770193e-03  1.6583092039733709e-03 2.3654950452538487e-02 -8.6117000629608569e-04  3.7558082227184169e-03 2.2344766262368532e-02 -5.3672003713928663e-04  2.7999317312426685e-04 2.2309554136653802e-02 -6.8901107004624496e-04  2.8231468345491428e-03 2.1667647135079130e-02 -1.6479095270538608e-03  -2.1532630470387486e-03 2.3138980118489992e-02 -2.4943852034100965e-03  -5.6796677797833362e-03 2.2982080224201801e-02 -1.5110379935467752e-03  -2.9832116599779412e-03 2.5345880217494298e-02 -1.6855911355925411e-03  -6.4576855518826250e-03 2.4096075938212509e-02 -2.5643397063085990e-03  6.6498189744416307e-04 1.9113683932493290e-02 -3.8204137688483122e-03  -5.7373452076662373e-04 1.9375106462009042e-02 -3.2923972951385072e-03  1.8147513709069318e-03 1.9257995720679811e-02 -3.2971332419309647e-03  -2.1074337755225860e-02 6.9528249958184787e-03 -8.3743313857385770e-03  -2.0601048423099885e-02 4.8291316102979575e-03 -9.2965923570116817e-03  -2.0727477244138426e-02 5.0213526221280537e-03 -7.3761503230788663e-03  -2.1637382176647641e-02 2.3173729965029880e-03 -8.2227586943110914e-03  -2.0598408181515183e-02 1.7783650362742733e-02 -6.8084308933226605e-03  -2.4738774068439478e-02 1.5053507093299716e-02 -8.7961147709588183e-03  -2.4243627166521082e-02 1.7306792046437373e-02 -7.0425553416910616e-03  -2.0344499876780449e-02 2.0838725030250842e-02 -8.7115949000611797e-03  6.1359013973708552e-04 1.8343188185618628e-02 -6.1174752532889920e-03  1.7962823665321126e-03 1.7732882532779496e-02 -5.5367959176111274e-03  1.0436900562826026e-03 1.7057124193395192e-02 -6.4156902658831271e-03  2.3684154926671475e-03 1.6923930538830137e-02 -6.3656240309449396e-03  3.3567447090371411e-03 1.9611043724289189e-02 -4.3990299014185592e-03  3.0192654344403155e-03 1.8869575447140473e-02 -3.7671608413192203e-03  1.8041509281399813e-03 1.8677585135126528e-02 -4.2919036161979994e-03  4.2254787520567402e-03 1.8276051170769192e-02 -4.2837689417716774e-03  -2.4004262638536600e-02 2.8294777036447370e-03 -8.8689943899279595e-03  -1.4654317496877657e-02 1.6904358086701179e-02 -1.7266878963332309e-03  -1.4056377363438189e-02 1.6293501285995406e-02 -2.3222233598870681e-03  -1.2557285420388664e-02 1.8207254855565666e-02 -2.6958509373552950e-03  -1.1985422395064595e-02 1.7442342567548761e-02 -1.8819328857910148e-03  -1.1970835772207051e-02 2.1142318402534412e-02 -2.1368257637048157e-03  -9.8468050892660305e-03 2.3374619544113549e-02 -2.5852093968039992e-03  -1.2618054215525946e-02 2.4264112588366128e-02 -3.2113067069796113e-03  -1.6583289874892368e-02 1.9301690052073790e-02 -7.9271819914977228e-04  -1.4430642957512617e-02 1.5187358234957234e-02 2.0378092264156981e-03  -1.4305849803676772e-02 1.4755823461156743e-02 3.2276918192133928e-03  -1.3986561968292998e-02 1.3942788544110666e-02 2.6307244189945995e-03  -1.2728107535300738e-02 1.5346639078151874e-02 2.1820883020592222e-03  -1.9086659330513019e-02 8.1194686294471050e-03 5.8302106868579626e-03  -1.8986215078444887e-02 7.0479043243528621e-03 4.9600346000322664e-03  -1.9143156541636026e-02 6.3209132156688465e-03 6.1805333399069552e-03  -2.0178482957851945e-02 5.9215834896725284e-03 5.5182309742309067e-03  2.2600022253936257e-03 2.3288251648698865e-02 -4.7481541368949963e-03  3.3862004778873595e-04 2.1377003868652950e-02 -4.8421295326997156e-03  5.1203711224998396e-04 2.2485465372792172e-02 -5.7221929470711586e-03  -2.6734414946662836e-02 -2.1088726204799798e-04 -7.2735486550938476e-03  -2.8836789235231964e-02 -2.8372541327448394e-03 -8.6419238676944139e-03  -2.9663803263652852e-02 9.6955198223605706e-04 -7.1019927228217388e-03  -2.9094211951734488e-02 2.3150572502807784e-03 -8.6082689021688523e-03  -6.6817404891687891e-03 2.8498282476538558e-02 -8.1010746874157959e-03  -4.5251101738534175e-03 2.7995984211913450e-02 -9.9107603112386488e-03  -3.1694802450632953e-04 2.6677146294610890e-02 3.3695636330061465e-03  4.8914300207708085e-04 2.7714992073357366e-02 2.1326664304900200e-03  5.1552792763568641e-03 2.6936169918673557e-02 4.0876092291848272e-03  2.5588026736696650e-03 2.5649821161150846e-02 2.2100758443476497e-03  -4.5547243252565834e-03 2.7092106166876784e-02 -1.0618409164597467e-03  -3.1648952936595425e-03 2.7604432820576664e-02 -2.6604175534452731e-03  -1.4239589964065089e-03 3.0492275111822186e-02 -1.9468945560800609e-03  -6.7644237970243657e-04 2.7533842382507206e-02 -1.5154924717793970e-03  4.0373271544343579e-04 1.8074046760777590e-02 -5.1672596960315158e-03  -2.2564019708708237e-04 1.7058425960709011e-02 -6.3667365009293427e-03  -2.0277903003603017e-02 7.7899647269822304e-03 6.6765018268831787e-03  -2.1363509744351954e-02 8.8935802349512996e-03 6.1078812693588789e-03  -2.2760028129204624e-02 5.6437426491789755e-03 7.1740101715026114e-03  -2.2054796240663546e-02 8.4893024370994805e-03 7.8893592808660113e-03  5.7564777121926639e-04 2.4510842949179004e-02 -2.7635083906974852e-03  6.1387785508013883e-04 2.2556568632233223e-02 -2.8571105351682903e-03  -1.3381675698254001e-03 2.2680985160031156e-02 -3.4751918326591559e-03  1.6906591488780654e-03 2.4124883749400496e-02 -3.8064557341813974e-03  -2.0604855800182641e-02 6.5511904962731390e-03 2.7537577338311381e-03  -1.8962572491274188e-02 6.0661429605987915e-03 2.2492030673495187e-03  -1.9297254269902930e-02 7.4046777107233961e-03 2.8116026116846880e-03  -2.0412377625162487e-02 4.1288978279757256e-03 2.8756913005432297e-03  -1.3130878244286040e-02 1.8653838153522999e-02 3.6769748171956826e-04  -1.1744958928090790e-02 1.7721428068448990e-02 7.6500564396923679e-04  -1.3521751025242197e-02 1.7550551035714089e-02 1.0425939020404342e-03  -1.3728194930258583e-02 1.6440890330209141e-02 2.0995644463338105e-04  -2.0180456537188269e-02 1.2121811364086278e-02 -7.6226779770896475e-03  -8.6638212407988218e-04 1.9139256575713807e-02 -6.1594779560797969e-03  -1.5852228692867442e-03 1.9256407764820512e-02 -5.3108233867390012e-03  -1.8419130418781703e-03 1.8220134877543832e-02 -6.2809380593747393e-03  -9.3089172397634880e-04 1.7782095402757759e-02 -5.5237147470630519e-03  1.0307883275860758e-03 2.5650722507785124e-02 9.3631548719979880e-03  -7.7486231682990787e-04 2.5966697075364753e-02 8.0199587271348946e-03  -1.8826216164054442e-03 2.4490874890398018e-02 9.8082020988009590e-03  -4.4643323266791886e-03 2.7904926740952393e-02 1.0182340071116120e-02  -1.0589240403715765e-02 1.5876123581914283e-02 -6.1685570467031083e-03  -9.8933233547081299e-03 1.4943533643234731e-02 -6.9824437139837346e-03  -1.0418434254233161e-02 1.5702237115699756e-02 -7.5577889540526435e-03  -8.8333015588325358e-03 1.5845675562975902e-02 -7.1475086154620393e-03  2.2643636567947741e-03 2.5364747320521724e-02 -6.3763805123887574e-03  -6.6131025449652782e-04 2.4276392090371919e-02 -5.6580438333388786e-03  6.0320430106405106e-04 2.3763678361110117e-02 -7.1391036314532507e-03  -2.5944894179328250e-02 5.9947021729149629e-03 -6.3237429836101571e-03  -2.7082500095461093e-02 2.3559128971513328e-03 -5.2331737651000829e-03  -7.4957933204976542e-03 2.9608446528554367e-02 3.1244252929820480e-03  -1.2192310044747171e-02 2.7743987434185720e-02 4.5374520799462336e-03  -1.3668398988372908e-02 2.7426829677228731e-02 1.9724679313214357e-03  -1.2946759543890284e-02 2.4359939669947150e-02 2.9485485406890543e-03  -1.2121312062827605e-02 1.9904562537594855e-02 7.2730195094725721e-03  -1.0279811453533506e-02 1.8441284824471302e-02 7.0726843298043861e-03  -1.1885034307353236e-02 1.8439430733702720e-02 8.3013615591620345e-03  -1.4150286061468212e-02 1.7863376296893371e-02 7.7496361712207406e-03  -1.4959529482179467e-02 1.3510339343557019e-02 -8.9402407763326244e-04  -1.6816561561822901e-02 1.3009405044803416e-02 -1.1418702408420326e-03  -1.5701098759598662e-02 1.2689812208698008e-02 -3.5745758619449826e-04  -1.5785548605846009e-02 1.4689819920229072e-02 -9.6122374739474761e-05  -1.3885085820924726e-02 1.5790646094503563e-02 9.2740905041154408e-03  -1.4165908490300029e-02 1.4234242188368166e-02 8.5658695123628815e-03  -1.7448628345659700e-02 1.3259465862524957e-02 9.9702991658676427e-03  -1.6371873236562466e-02 1.4554546303251930e-02 8.4490410233611351e-03  -1.7288298287178296e-02 1.1856911301620305e-02 -1.8016250518219424e-03  -1.7253026568291349e-02 1.3079463671129129e-02 -2.3969974686370017e-03  -1.8804676337348201e-02 1.1648492972925511e-02 -2.6527854257387285e-03  -1.8271315630104160e-02 1.2653840977330444e-02 -1.6221665527171407e-03  -8.3586414161565085e-03 2.6151947855334673e-02 -2.6839852178395965e-03  -6.7532798512739993e-03 2.9658396311595114e-02 -2.6914166378377386e-03  -1.7763447152902984e-02 1.1209576618707598e-02 -9.1740395145941918e-04  -1.7413792597578390e-02 1.0220922653621638e-02 -3.6308134431475598e-04  -1.8499159493430162e-02 1.0363590541038139e-02 3.2955468511292768e-04  -1.9542031860184595e-02 1.7174389036533694e-02 1.3112657979218845e-02  -1.9296429905494236e-02 1.2967511301807838e-02 1.0992093509451410e-02  -2.1927253277296811e-02 1.3985689153444799e-02 1.2996876931230233e-02  -1.9355216814765375e-02 1.5377528657516973e-02 1.0401115658992453e-02  1.8621845193459967e-04 1.9938978434025541e-02 -8.3292699504664905e-03  -2.4914202825514213e-03 2.1268737464493953e-02 -7.6503336243041765e-03  -1.6741211218610377e-03 2.2735677017897325e-02 -8.8566927531598064e-03  -1.1127273321739275e-03 2.1058903839260665e-02 -9.1868026898108256e-03  -1.2897872296989575e-02 1.7394572229681531e-02 6.4341887724439035e-03  -1.1527889591281197e-02 1.6564509499593340e-02 7.2208802045229019e-03  -2.2881224481603898e-02 1.0106569202367247e-02 -4.0335127958591194e-03  -1.2151260749576741e-02 1.6365047062547655e-02 4.0126999840329261e-03  -1.1554931061495469e-02 1.8141666198697504e-02 3.2679703734995549e-03  -1.4084549014721197e-02 1.6488070886091145e-02 4.3219941768113841e-03  -1.2261916328352633e-02 1.8865310195250160e-02 4.5405726974927143e-03  -1.2295158595230296e-02 2.0154521851634948e-02 -7.8141280076717123e-03  -8.5362534519145741e-03 2.2118721848950567e-02 -6.9019773782955452e-03  -1.0691678316895634e-02 2.3145103992213034e-02 -8.2449759855044557e-03  -1.0015063381971504e-02 2.0139043410900306e-02 -6.4177453936281499e-03  -2.1974048443603972e-02 7.5780963715835835e-05 -5.2868867807871170e-04  -2.1700940770862209e-02 1.2516793141137152e-03 -1.2338833310887815e-03  -2.0988866394524110e-02 -2.3009567508015076e-04 -9.9985695879658198e-04  9.3874664375016110e-04 2.4169383040474515e-02 2.4836497041032623e-03  4.9107175835595525e-03 2.4651947557309557e-02 1.2587503148757874e-03  1.4797805226324985e-03 2.3196449032891850e-02 1.0547766127334782e-03  -1.9240272185095206e-02 9.1971174950345250e-03 2.5627522326776291e-03  -1.8605555167634714e-02 1.0978603561587559e-02 3.6465261141226317e-03  -1.7673419261294517e-02 1.1365052034978973e-02 2.5029862174004817e-03  -1.9282870146355137e-02 1.1149459556347996e-02 2.8168255980636258e-03  -1.4732212098453540e-02 1.2919336930098772e-02 6.2181143801382510e-03  -1.5636899554114920e-02 1.1655460053581508e-02 5.4311296127778040e-03  -1.6175561329199718e-02 1.1068548404800304e-02 6.2779752639676020e-03  -1.6117556189959407e-02 1.2920484301796218e-02 5.9680094516475334e-03  4.7679724237211