<?xml version="1.0"?>
<VTKFile type="UnstructuredGrid"  version="0.1"  >
<UnstructuredGrid>
<Piece  NumberOfPoints="370" NumberOfCells="1211">
<Points>
<DataArray  type="Float64"  NumberOfComponents="3"  format="ascii">0.6305366219362482 1.461672021701259 2.573137157518678  0.3505506524007391 1.439119323266543 2.229124975212371  0.7233515360664949 1.860504275633375 2.143566592013062  1.16929327003969 1.615214451734676 2.02523850809439  1.962734657692562 0.3783613699999914 1.846559366820982  1.91926574085063 0.5296409455353088 2.339697577168066  1.745217422811993 0.9572087840349652 2.004132439917261  1.399310647126385 0.4861101870387526 1.965101941806065  1.491481428815471 -0.04246098436356954 1.192857642755402  1.240992448073932 -0.7277991002123511 1.504890969845327  1.451841918673485 -0.4160870690660196 0.8124817833527678  1.957241061154269 -0.4044530916512841 1.130662055155801  0.850549934291718 1.02575904982513 0.5353204991820871  0.9958825989361937 1.724545838077586 0  0.79119686240752 1.833952643622452 0.6008470958115142  1.190141907336148 1.598104417287793 0.790786027167462  0.1466855526147347 -1.464880016853866 2.2297974104337  0.03653064831300958 -1.996402045182105 2.459535282061257  0.4182078247438861 -1.953068608486724 2.399152904188485  0.3606546971297125 -1.571158736162652 2.586357545217903  0.9545290653659886 -0.2816454632327977 0.6694471130563237  1.285895848641168 -0.9157810167207565 0.4484794291144768  1.191933442830757 -0.8743164676129442 0.903733845483468  -0.04369448314686741 -1.9956964690359 2.079055695557334  -0.08831675386205026 -1.592209287680673 2.5786718043508  -0.4597234839101871 -1.940474970960854 2.365577208844509  0.8599034339052349 -0.5023742943566752 3  1.339634282624336 -0.7964456803802702 2.547452680787598  1.468057415404991 -0.2920147759474656 3  1.371659700543215 -0.6077316139648379 3  1.512588052516405 -0.2740719184538642 1.754192008279186  0.9893257645081893 0.1083773317058151 1.785271323260748  0.9756404903825265 -0.2120504217921436 1.431575385960868  0.9545290653659886 -0.2816454632327976 2.01543266745928  -0.6813513412608918 1.373329703138566 1.700767684044582  -1.111645100464135 1.018766509541888 1.580900689761718  -1.059542960476273 1.69051866591576 1.998542381954114  -1.170945775598536 1.613858275470806 1.514352004916045  1.52494138948322 -1.279291314658712 0.6173649490931152  1.669784403879814 -1.098334036361089 0  1.779059765191092 -0.8938942146969459 0.5606628110678626  0.1821743391565473 1.595435930750562 2.5903667231274  -0.1879604925798806 1.981487507310104 2.257437501874302  -0.4179722159358051 1.953140079637284 3  0.04335340489247286 1.995730062311829 3  0.708221843788238 -1.311703949689869 1.769051025256928  0.7911968624075247 -1.83395264362245 1.495263286014477  0.477219149204427 -1.935167718916343 1.889112662052278  0.2683758495222019 -1.490673620404064 1.475667784107566  0.9025541663092692 0.4225803863622857 0  1.135486067825821 0.947534454009326 0  0.6021968632248157 0.7932041258053155 0  0.9827995192597104 0.1746394117049448 2.234570310665951  1.323841507958512 0.4889974985894576 2.488428520580235  0.9025541663092692 0.4225803863622857 3  0.9955658339392071 -0.04502084354218341 3  -1.126481124092755 -0.9473283376278889 2.074233125962432  -1.664006297246322 -1.10914411354164 1.875888952633512  -1.294582432735519 -0.820629184485212 1.551364336100787  -1.312762776967178 -1.497472070268641 1.943469646961802  0.9807852804032303 0.1950903220161286 1.006853791166158  0.8534608015375593 0.5144276117421314 1.633723584493013  1.430264222105482 0.4050405554365119 1.451769552081978  -0.7740713825566979 -0.6255101783274258 3  -0.9807852804032304 -0.1950903220161286 3  -0.8836349378529437 -0.457975773256652 2.310914062613334  -1.344567555190213 -0.6983284766763056 2.512258555473228  -0.5131581223052614 1.382860631703773 1.129235146161471  -0.02829600397680024 0.9972130868589251 1.611363293353632  0.06779261740588695 1.516765368192542 1.298023978812301  -1.988366544844581 0.1181164523892848 1.985795232067481  -1.43886208970591 0.5149695080182193 1.569797912004486  -1.36936675165574 0.5445791180649255 2.094601113017113  -1.441353532002964 -0.002342185071706054 1.686018115577875  -1.973204015961851 0.2720641916429689 1.04935599125763  -1.973811255843297 0.2658987816605045 1.52516799132508  -1.873357740944297 0.6809793394824694 1.315280730417338  -1.188860511984403 1.060117160508811 2.563049150981436  -0.6181448518038473 1.361670697378814 2.257069987665449  -0.5260672980891882 0.8472392595660831 2.417582874741109  -1.033679646116655 1.024275855209801 2.145813876738128  -1.514674703827641 0.3918295191835702 2.521219115594658  -1.9147265257177 0.5446047324439067 2.31369071979841  -1.987182279842392 0.1301404967408785 2.419469863729676  -1.961570560806461 0.3901806440322567 3  -1.423509350166563 1.402886612173637 2.399036955962143  -1.245839619965377 1.552394485835316 3  -1.059542960476273 1.69051866591576 2.444231285366565  0.3959736871192822 0.9167757433455479 2.450393920867024  0.3959736871192823 0.9167757433455478 2.007856029557719  1.014116663803043 1.091301493651112 2.474767832486639  -0.6397769089613947 1.885856361599427 2.410835427716981  -0.2308620053190963 -1.551539094294586 1.717794458136412  0.5916715253007025 1.35922078290025 1.616040581602528  0.4218757816223546 1.951955945932026 1.52996483538921  0.8455820105048553 1.804883176334093 1.110887337947722  0.2171273278454561 1.452231135633227 0.7206241776988639  0.5838681171949094 1.350343322085466 0  0.570825861405329 1.906772433206812 0  0.07503473923697349 -0.9926097232320116 3  0.5289722636881395 -0.8456865231038897 3  0.3150958902771757 -1.466099679343499 3  -0.7388634075939597 -1.312816839320978 0  -0.5715818319253561 -1.466126416576961 0.4872632822601926  -0.790979724086402 -1.834068706473131 0  -0.4336968377143349 -1.444224541082522 0  -1.704258405401222 1.033837715886708 2.209211779154401  -1.813533168648966 0.8293990131207396 3  -1.57081860896361 1.223389760977683 3  0.5942163908489371 -1.374481420233743 0  0.7270811635437457 -1.27490888061952 0.5462966671918753  0.9958825989361997 -1.724545838077583 0  0.8720618164091423 -1.226870877129539 0  1.52814208573423 0.1613137918978926 0.5102072734156454  1.931628784137607 0.4888854537001639 0.8268342758254814  1.873050508530103 0.6819921490195341 0  1.779059765191089 0.8938942146969522 0.5856441150032816  -1.438480770485098 -0.07050119218872986 2.438185635059182  -1.513914009740071 -0.2001832623755173 3  -1.479465319414609 0.08365730523362372 3  -1.973204015961851 0.2720641916429692 0.585554881990308  -1.981971206824973 -0.1830494089890101 0.817455436623969  -1.442538962714197 0.1702583109259658 0.9778387525341716  1.13378064835715 1.644358907156259 1.504736713985521  0.9802837104947404 1.015623498320987 1.932926185769896  -0.6020906612473962 -0.7932912835157278 0.5300545641521022  -0.8836349378529436 -0.457975773256652 0.6404787520590902  -1.023790947274213 -0.8542189253140726 0.4828357610848663  -0.602090661247396 -0.793291283515728 0.9479788500445958  0.6403047911642088 -1.885696230283868 3  0.1878647545340524 -1.981496936684592 3  -0.07495270366908996 0.9926178030302176 2.335678285116733  -0.1633239734712831 1.457514625388545 1.969260541812861  0.1736639328492305 1.982895595541155 1.940581159545814  -1.851925440117959 0.7516321667079673 1.81593851648282  0.9314397286268589 1.185469520867052 0  -1.493079834035256 -0.02565043060049582 0.4708275303802578  -1.940494357883519 -0.4596595737911316 0  -1.873203290925756 -0.6814884929589626 0.7907882208455987  -0.9408192553364747 -0.3268406500285767 1.845715925535895  -1.441806623388049 -0.4387237814713535 2.034006661436112  0.6612847082440421 -1.340114905463987 1.108893916461269  0.3402362675669802 -0.9367557391813275 1.488714204061065  0.5360331878793529 1.383554395144927 3  0.5013469316464557 1.927848636129754 3  0.9318504505456354 1.758771734451193 3  -1.429512709177072 -0.3562124671024821 1.118349919785871  0.7623538123515461 -1.256718477748746 2.327019461856683  0.3106111190640441 -0.9457424297310684 2.455385688454125  1.442193373962851 0.348801655142766 0  1.28393644087122 0.6551747871608027 0.5464156047922772  -0.7378844931157909 0.6696040306912336 1.328661823726752  -0.9726455044974873 1.137273922375865 1.073924182966422  -0.4172064841849356 0.905426576866573 1.472187054373984  -0.5041753880756408 0.8589407292555569 0.7961323206085094  -0.4857392175468291 -1.371645797971567 0.9777955730243429  -0.08925624373007968 -0.9912090272966354 1.19456677684017  -0.4903859489869041 -0.8663113380070018 1.393053778537583  -0.1244862568658107 -0.9877391738626058 1.721971119438714  0.06424814067857221 -1.462513542149503 0.8252938567089958  -0.2165167111830255 -1.978674965265306 1.059418840454187  0.08389629142111744 -1.655366426983338 0.4668966795233791  0.791196862407529 -1.833952643622447 0.6178951048582574  0.5289722636881395 -0.8456865231038897 0  -0.8598386698837637 0.5024954593186663 2.384476326122496  -1.415649600564344 1.412463744774179 1.124111047366489  -1.669846618080803 1.098217641777694 1.495259244783022  -1.669846618080803 1.098217641777694 0.7844479410434644  -1.302506330247836 0.7314384720123622 1.10539181245277  -0.9967945349396865 0.03254563292889093 0.6355050416165856  -0.9916319741441293 0.08496199232257164 1.271933936467721  -1.98098155916357 -0.1930974703189275 1.399842543598607  0.03296184272064258 -1.996753541853206 1.470035164610787  -0.8598386698837638 0.5024954593186663 0.7531117329128125  -0.1161671093212523 -1.988558538379005 0.5893077665132739  -0.5709179202917509 -1.906744507448919 0.7425624981256993  0.7876799948882367 0.6089280362230858 0.7814979844598379  -0.1396511336192156 1.472791285825262 3  -0.5135625025850592 1.416926151553228 3  -1.174791349590177 -0.9094291444928995 0.8802318284181406  -0.8667404926794215 -0.4895830570665023 1.393053778537582  -1.392669400495818 0.5227178203765839 0.5650798974098937  -1.524758301142871 1.279514408446921 0  -1.779307272275358 0.8934311615112988 0 
[...]
<PointData  Vectors="f_17"> 
<DataArray  type="Float64"  Name="f_17"  NumberOfComponents="3" format="ascii">3.1372357967929093e-05 7.4728552195030973e-05 -1.8559313781559421e-05  2.0210347077098942e-05 8.2935697312983104e-05 -1.2529696377647719e-05  2.5658568874678562e-05 6.7236052251330600e-05 -1.0746840075636664e-05  4.1813135509082153e-05 5.8476760233022937e-05 -8.7333647991986402e-06  6.9605242401487170e-05 1.3793763689674892e-05 -5.6785887786512200e-06  6.7926131517870826e-05 2.0066865857381949e-05 -1.4432887897227760e-05  6.2708409682919096e-05 3.4878341882984563e-05 -8.5139558659685826e-06  7.9355702339375679e-05 2.8638213925572351e-05 -7.9684617609746929e-06  8.3428162655923711e-05 -2.0241584647808442e-06 5.6998049965116028e-06  7.5110133519956340e-05 -4.4145084095200304e-05 1.3484660293330786e-07  7.9606956500386094e-05 -2.2015613113903531e-05 1.1357276613141772e-05  7.0196253815266808e-05 -1.3900409514704916e-05 6.2948637236844681e-06  5.8179962735653147e-05 7.0851544521461534e-05 1.7042011963419449e-05  3.5764135388500234e-05 6.2767966460696348e-05 2.6512593967089414e-05  2.8367217619499083e-05 6.6959888830270839e-05 1.5607707506269525e-05  4.1623212085834244e-05 5.7732262770756030e-05 1.2497808089402414e-05  8.1671608349145579e-06 -8.5080122346525874e-05 -1.3347582705094798e-05  1.0069755069191181e-06 -7.1282549201938389e-05 -1.7850205263337781e-05  1.4287765918657255e-05 -6.9849478473522103e-05 -1.6656922002765271e-05  1.7369998362653984e-05 -7.7964515656724366e-05 -1.9929173370659238e-05  1.1027836398665645e-04 -3.2076341506443224e-05 1.4701004206984189e-05  6.6430137083550714e-05 -4.6492217044288461e-05 1.8021323830754647e-05  6.7539714293586890e-05 -4.9206614686870193e-05 9.9309158803922263e-06  -2.0413149816656373e-06 -7.1085349783115302e-05 -1.1235592592955639e-05  -5.1316402409176242e-06 -8.0607637079663813e-05 -1.9773289475597246e-05  -1.7002229859014541e-05 -6.9671863542853412e-05 -1.6098406969952988e-05  9.6701262580456694e-05 -5.8515448391590118e-05 -2.7050392947279960e-05  6.9787872821482815e-05 -4.1789567557295435e-05 -1.8479906157475191e-05  8.1961275211319727e-05 -1.6622685005300297e-05 -2.6356474775410975e-05  7.5847663870108186e-05 -3.4030965968794514e-05 -2.6227678730099472e-05  8.0299842503525574e-05 -1.4771889836720026e-05 -4.4211589193670523e-06  1.0964499445660766e-04 1.1605053618276179e-05 -5.2984785665105319e-06  1.1087409791398315e-04 -2.5899910760610338e-05 1.2720732699615217e-06  1.0713555071259282e-04 -3.1192116278179396e-05 -9.8879948950258979e-06  -3.7568531388695921e-05 7.3576193048383433e-05 -2.8767698006064077e-06  -6.2204332265282456e-05 5.6362733498666882e-05 -1.0183062612997772e-06  -3.8585850805303580e-05 6.0501006696059704e-05 -7.6527345122235340e-06  -4.2232732919635943e-05 5.8160843168709358e-05 4.7933061854862441e-07  5.4415939476329664e-05 -4.5401384974864149e-05 1.5193263400233702e-05  5.9633398158474130e-05 -3.8515568636997454e-05 2.5854371484528980e-05  6.4101323597102376e-05 -3.1509753264840469e-05 1.6159841381469913e-05  9.2734395877226925e-06 8.0724993946248774e-05 -1.8117480112828762e-05  -7.2734359877089106e-06 7.1517678030405109e-05 -1.2549944950090230e-05  -1.5813271877885361e-05 6.9799917238490172e-05 -2.4242867654278512e-05  1.0389926292088984e-06 7.1978893190429775e-05 -2.5233792156160282e-05  3.9564736600770501e-05 -7.4198993074164375e-05 -5.3915806807895232e-06  2.8652976131710560e-05 -6.5058258017218593e-05 -7.1700484020157707e-07  1.7014746248702803e-05 -6.8997841705048735e-05 -7.7258383748026978e-06  1.4400892451393796e-05 -8.1705719887868004e-05 -1.6671801289231791e-07  1.0294782217341296e-04 4.8170985436731220e-05 2.5242297676698825e-05  6.3872967026562424e-05 5.5048745599692405e-05 2.5893287216657390e-05  6.7699804904729026e-05 9.0811273858189552e-05 2.7463509072934731e-05  1.0908717801563401e-04 2.1205037427820311e-05 -1.2980937773306208e-05  8.1770137142428637e-05 3.0870869563275485e-05 -1.7305261542607048e-05  1.0140511384157538e-04 4.8433755184781939e-05 -2.5741060163719784e-05  1.1224828889172135e-04 -4.8424548881370699e-06 -2.6392099968064365e-05  -6.5775485786519395e-05 -5.5178889384042486e-05 -9.9409096383959553e-06  -6.0079605498365570e-05 -3.9272725043222380e-05 -7.1816725921280188e-06  -7.0282323697922324e-05 -4.3377264182952256e-05 -1.8177332656226540e-06  -4.7639065003162943e-05 -5.3484301444791741e-05 -8.2500868471561643e-06  1.1161035731040060e-04 2.1589748954008630e-05 8.1960304271764788e-06  9.4463531226491161e-05 5.9159891869282285e-05 -2.0776662436432178e-06  8.0396470495150212e-05 2.3501953164274377e-05 4.7837078365832951e-07  -8.8756019348293586e-05 -6.9649748096331962e-05 -2.6386628475702684e-05  -1.1054878782279677e-04 -2.2261793595845894e-05 -2.5076648984398799e-05  -1.0189289701584632e-04 -5.2708970964211944e-05 -1.3610698055459848e-05  -7.4569970207130696e-05 -3.7622702069615883e-05 -1.7705551701112272e-05  -3.0235257998824952e-05 7.9615704143303848e-05 7.3169569672614323e-06  -3.2866870619607105e-06 1.1374451828233749e-04 -1.7906295951606721e-06  2.9777651472038757e-06 8.4131753439572083e-05 4.3498111576817861e-06  -7.1281909106611454e-05 4.1496773691042857e-06 -7.5707678895447577e-06  -7.8479128198914882e-05 2.8784202806978440e-05 4.1815940427669545e-08  -7.8264234756549562e-05 3.2155017014740711e-05 -9.4534855671992933e-06  -8.7160128277485855e-05 3.2291727167951967e-07 -2.7800235787238001e-06  -7.1247002496684802e-05 1.1024237866554041e-05 8.6730715161059101e-06  -7.1566436968364432e-05 9.4649032476040559e-06 4.3415246839043254e-07  -6.7998990276000573e-05 2.4998850064759008e-05 4.5206137083426677e-06  -6.0606282462452742e-05 5.3406052006028115e-05 -1.7246225703551288e-05  -3.5337905186775881e-05 7.7118699883473959e-05 -1.2348958095471010e-05  -5.9106503708947192e-05 9.5497010867729972e-05 -1.5608178709680979e-05  -6.1506501019307317e-05 6.0758059234780096e-05 -1.0604265786039779e-05  -7.9108274396777681e-05 2.0583121676975783e-05 -1.6780444350794317e-05  -6.8529877715365714e-05 1.9946963439253756e-05 -1.3047191787228870e-05  -7.1105943147638782e-05 4.2816099345342733e-06 -1.5290600143644901e-05  -6.9350686123329408e-05 1.3249949063715428e-05 -2.4161233762557290e-05  -5.0728709975415873e-05 4.9717609182702402e-05 -1.4140656559840268e-05  -4.4732534198994784e-05 5.5224196084640162e-05 -2.4503947263700428e-05  -3.8498050622034860e-05 6.0558357919320421e-05 -1.5002905702960795e-05  4.3197435444041413e-05 1.0573547717222478e-04 -1.7170259265114806e-05  4.4652311771304647e-05 1.0478911942435422e-04 -8.3570304462318273e-06  5.7285447727961922e-05 6.2887362597015872e-05 -1.6846142388994927e-05  -2.3593108242637390e-05 6.7385154816745367e-05 -1.4975202117563574e-05  -1.2237235402369831e-05 -8.0106056807111893e-05 -4.3471727809577457e-06  3.3551484957838181e-05 7.7962450527147391e-05 -1.6335297102871424e-06  1.4761002488529707e-05 7.1491094212459866e-05 1.4508262299008880e-07  3.0564857453435939e-05 6.5647341044057107e-05 7.2688241302240714e-06  1.2129268611902330e-05 8.5788081704223735e-05 1.3782470633071539e-05  3.2974368179486620e-05 7.8708827838445465e-05 2.5968220227515683e-05  1.9435201152892374e-05 6.9650149395279065e-05 2.6310520039960297e-05  8.3173402933377031e-06 -1.1263433819292311e-04 -2.8254369371523081e-05  5.8628128478947304e-05 -9.6467450996866083e-05 -2.6564416706619218e-05  1.6977572546774253e-05 -8.2575218866550061e-05 -2.5642164118095242e-05  -4.1019748164014304e-05 -7.0661363387351344e-05 2.5324873682572771e-05  -2.9772734409135660e-05 -7.4390977993455464e-05 1.7114710671549087e-05  -2.8687713452730944e-05 -6.3541553728812389e-05 2.5019956738544074e-05  -2.4801923988658648e-05 -7.8397130633523260e-05 2.4884177268596582e-05  -6.0794283251959649e-05 3.7270922432097516e-05 -1.0856492626482205e-05  -6.4330536205598195e-05 2.8823555687087390e-05 -2.3834627589179145e-05  -5.6101675963038944e-05 4.2993759955615425e-05 -2.4592040350959225e-05  3.3031610157205661e-05 -7.5773745902732993e-05 2.4863166902969119e-05  4.1826374068228333e-05 -7.3479139850188835e-05 1.6104311777376194e-05  3.5233329040655555e-05 -6.0606756421116040e-05 2.5837430658315751e-05  4.7662102381987991e-05 -6.6875449319047408e-05 2.5570362135265616e-05  8.1591092975883406e-05 9.7717203258348906e-06 1.7417507057517477e-05  6.8598219265964959e-05 1.8082140545481856e-05 1.1997134372861368e-05  6.5940219754995135e-05 2.5823757301236067e-05 2.5479780114168557e-05  6.2419997668279113e-05 3.2574101535203717e-05 1.6108356965879137e-05  -8.6477470430443575e-05 -4.8272010219159072e-06 -1.5748106985171833e-05  -8.1911280056607037e-05 -1.0955352990898768e-05 -2.5570207168605578e-05  -8.4589563115054097e-05 4.6335425733536904e-06 -2.4917254100366256e-05  -7.2073046122054959e-05 1.0916800562285394e-05 1.6882099728346710e-05  -7.2407419726925132e-05 -5.9193258551810174e-06 1.2092919534209095e-05  -8.6173599496498603e-05 1.0272174197358364e-05 9.9466574024652788e-06  4.1111091299818834e-05 5.9542166629229444e-05 3.2514881219842366e-07  6.1002143776618998e-05 6.4458681352003923e-05 -7.1537667766128578e-06  -6.6345082483258765e-05 -8.8555687665081570e-05 1.7552276808479042e-05  -1.0179414632292564e-04 -4.9371784122431677e-05 1.5993398676268696e-05  -7.0057828146430633e-05 -5.7484043069324617e-05 1.7876886588020548e-05  -6.8144805407889135e-05 -8.7524059373205772e-05 1.0659112884973307e-05  2.3187968188523975e-05 -6.8122352232668362e-05 -2.7146880265480720e-05  6.2627261476162803e-06 -7.1827166027322223e-05 -2.6699553884912639e-05  -7.7975504050098282e-06 1.1319672302926767e-04 -1.4172468448728229e-05  -9.8069933714125754e-06 8.5277273004529956e-05 -7.5574784889996454e-06  5.2833240040617819e-06 7.2498565654803714e-05 -6.9357014110141061e-06  -6.5964321705481272e-05 2.7500696146050088e-05 -4.0176873934690877e-06  5.0686143048719872e-05 6.6627710451296247e-05 2.6370779518504941e-05  -8.5095308586056770e-05 5.3159848986258924e-08 1.8725603962435979e-05  -7.0405653703942202e-05 -1.4721894715631754e-05 2.5791737735871393e-05  -6.8372140171798297e-05 -2.3669676380072759e-05 1.2277548745086398e-05  -1.0621970349046783e-04 -3.8654468973957209e-05 -4.3793966579307655e-06  -8.0211981270515088e-05 -2.5233315588220613e-05 -9.5252889469845382e-06  3.7188560894569773e-05 -7.4824710394335670e-05 6.0946804803042608e-06  3.9273739730132205e-05 -1.0556630018723779e-04 -6.1441237740081133e-07  3.0481409867745014e-05 7.9685488523695516e-05 -2.4690792116970468e-05  1.8033223145275558e-05 6.9919187011426221e-05 -2.5089273499428098e-05  3.3834072160325304e-05 6.3990188147932037e-05 -2.5410972010673619e-05  -8.3840460661929308e-05 -1.9721408221654901e-05 6.6577010254647861e-06  4.4014641992448490e-05 -7.3127931489104457e-05 -1.4753134091411879e-05  3.4118479080134817e-05 -1.0779086999824116e-04 -1.6623925365039599e-05  8.1636833899504776e-05 2.1232758037251394e-05 2.5504891377268867e-05  7.6609876674471961e-05 3.9303621918775518e-05 1.6015452431692847e-05  -8.5143356546410731e-05 7.5033077604547135e-05 4.0340597954920109e-06  -5.5003164638047656e-05 6.4469388620226286e-05 8.5175164558561354e-06  -4.6921802530425585e-05 1.0353860819213012e-04 1.1072107696890877e-06  -5.6842308262332837e-05 9.7282708242124488e-05 1.3670908490389389e-05  -2.9562301623155942e-05 -8.0723111228715657e-05 8.2842955144231930e-06  -1.2827337015343134e-05 -1.1188928192952398e-04 5.6646726318019620e-06  -5.6654904237728765e-05 -9.6003342266910799e-05 1.9178834956013212e-06  -1.4982366830590897e-05 -1.1153420874986481e-04 -4.6873731109441142e-06  2.9107392009120049e-06 -8.4196342678318140e-05 1.1606238755251110e-05  -8.8412689375846660e-06 -7.0313541850421454e-05 6.7327097262445713e-06  3.3602968494841947e-06 -7.7475166205357256e-05 1.7187558489205488e-05  2.7062334894490611e-05 -6.4209721005822112e-05 1.4184092544000405e-05  5.9432525983457292e-05 -9.3463208988903463e-05 2.6196267762525390e-05  -9.8144613072142505e-05 5.7626403607589821e-05 -1.5956893474022396e-05  -5.1091308910830539e-05 5.0828960303490666e-05 7.8031352969470701e-06  -6.0377569888816999e-05 3.9248150230989149e-05 1.0142239739824754e-06  -6.0234402292189225e-05 4.0273908452906046e-05 1.3277554658119322e-05  -7.3833552857419549e-05 4.2032230015611741e-05 6.9175028977044223e-06  -1.1448364638927143e-04 3.9429332411601271e-06 1.5474865308194064e-05  -1.1285698202730871e-04 1.0965123958920943e-05 4.4379416928377346e-06  -7.2221097947404390e-05 -6.1343754950654839e-06 2.5487845374153826e-06  5.6998167319292589e-07 -7.0885808503029523e-05 -6.3306036896919293e-07  -9.7872746456768481e-05 5.6497934570323187e-05 1.3946456605222692e-05  -4.5974906653322384e-06 -7.0199453203236857e-05 1.5145502209297082e-05  -2.1440379172790328e-05 -6.7275903380724077e-05 1.2171360725343345e-05  8.8140741085393891e-05 6.9030374093141211e-05 1.2993203538596394e-05  -7.4408390489648859e-06 8.5034203073928861e-05 -2.4839256605891643e-05  -2.8306512457553487e-05 7.8239839006811232e-05 -2.5533804738889873e-05  -6.7972912801516264e-05 -5.0256990930900169e-05 1.0609402144454884e-05  -9.9975020377183655e-05 -5.5188823998266281e-05 1.6087316752789190e-06  -8.0052667381287249e-05 3.0790266053133878e-05 1.7251454483020318e-05  -5.5158693353726473e-05 4.7305034162040718e-05 2.6608323715047217e-05  -6.4851601223904883e-05 3.3449681505385495e-05 2.7204710560701453e-05  6.4249657599174673e-05 -3.1137586050736494e-05 8.6088195946318368e-06  -5.5616975031819346e-05 -6.4360556432476837e-05 -2.6441365730435869e-05  -3.4344177000947511e-05 -7.3662658694709739e-05 -1.8207472955492258e-05  -4.3579090601694188e-05 -1.0464931754771467e-04 -2.6796292336294328e-05  -4.0058261183994986e-05 -7.3433504288784030e-05 -2.6596323113854406e-05  -6.8162128535277503e-05 2.5616529024861868e-05 1.2506968178229949e-05  -1.3202111369189526e-05 -6.8555146955334318e-05 2.4565788631452828e-05  7.7771863966088123e-05 -1.7081654045958429e-05 1.9202807122980847e-05  7.1133087564310672e-05 1.2716065305912222e-06 1.2700125333432992e-05  -1.0751798578508156e-04 3.0621171799688500e-05 -2.5714288189019362e-05  6.7234505137348983e-05 9.0479142015631933e-05 -2.6457426046251553e-05  4.9535867856913557e-05 6.7829890951736992e-05 -2.5407380427319247e-05  6.2664802062052714e-05 5.6926852915355886e-05 -2.5097743553900224e-05  1.8044123802292300e-05 1.1425318521651018e-04 2.6396586313436020e-05  -6.1629324880347148e-06 8.6229861493166847e-05 2.6883518202695838e-05  -3.6822882557851529e-05 1.0770257221091174e-04 2.7493000658663681e-05  -8.4187359926557565e-06 1.1329759285181577e-04 1.6484154899020965e-05  -7.4414939382462831e-05 -3.3369650884845653e-05 1.7930343544565591e-05  -5.9708994706876876e-05 -3.8503942260257382e-05 1.5541222961602705e-05  -6.9220494988536546e-05 -8.8235561795155370e-05 -7.0889744363082652e-06  -3.6214934028660286e-05 -7.8952082127441904e-05 -1.1312028466437623e-05  7.0944611431209947e-05 8.4740313063408352e-07 8.6393918878335145e-09  -8.2892029940670825e-05 -1.2953814126660622e-05 2.6429209449073378e-05  5.6361970276655094e-05 9.8759466787082560e-05 4.4985301526123306e-06  4.2389800231451325e-05 7.4053411224593972e-05 1.0370625682994978e-05  6.2263024571095684e-05 3.4399292970704141e-05 -1.6125689456516356e-05  4.8779502914049233e-05 5.1286092007207859e-05 1.6457458414368851e-05  4.8286255024587641e-05 5.2764424307021462e-05 2.6533227410079884e-05  5.7095489288881074e-05 4.3051547821969664e-05 1.7088483403146969e-05  -1.8564328226769393e-05 -1.0881224374473742e-04 1.5739411364996547e-05  3.4833092227906624e-05 -1.0443248371421706e-04 1.3153863604596532e-05  -3.7492677820452604e-05 -6.0677666544693492e-05 -2.1269086734349683e-06  -5.1186464603426153e-05 -6.5101425584437102e-05 2.9653315911331211e-06  -2.0705875940547159e-05 -6.7631353074415262e-05 7.0655378142907226e-07  -3.6406444185886982e-05 6.2560888903048957e-05 1.7136532513141076e-05  -4.9564471104725287e-05 5.2329717794523919e-05 1.6608858981819546e-05  -3.6247093230330235e-05 6.2424562350755369e-05 8.4575343661924868e-06  8.0296758104655405e-05 2.3776334948176285e-05 -2.5455197868444949e-05  -4.5157342956710789e-05 -1.0239986810769225e-04 2.6371592182192652e-05  7.9238460192213810e-06 -1.1185408131066850e-04 2.5396980151659087e-05  -3.3624539399042686e-05 -6.3080984560473472e-05 -1.4618086618269718e-05  -2.6316178332747522e-05 -6.6777121194971554e-05 -2.6852107936173965e-05  -4.0585358695104982e-05 -5.9353590840739072e-05 -2.6462983158666016e-05  -4.5335414296362772e-05 7.2143362527279847e-05 -2.5331804216070750e-05  -3.0685680945265718e-05 6.4662121407706153e-05 -2.5539037013250928e-05  5.8421172542787555e-05 4.1338792242872043e-05 -2.5048874566295887e-05  6.5505601232785133e-05 2.6721579736760145e-05 -2.6147483874436994e-05  -1.0164027407783243e-05 -7.1261304963287324e-05 -2.6707977805359149e-05  2.1388376071797245e-05 6.8977583590443427e-05 -1.6555125662094076e-05  8.6435427221855516e-05 7.2060225559808947e-05 -1.4806466725627273e-05  9.5975148104862089e-06 7.1397449965289971e-05 -1.5239998386246644e-05  -1.1222035043432387e-04 9.7061004684164756e-06 -9.9722367433871288e-06  7.0407015082401574e-05 1.1296535932492451e-05 -2.5822599033322191e-05  8.4770910668908274e-05 -5.9258353054636063e-06 -1.3525150787250037e-05  -4.9652536554009744e-05 -5.0762390787991965e-05 7.9193321953171780e-06  -7.9663422564072722e-05 -2.5813445499946925e-05 -2.5407238416612457e-05  -7.0541230651273147e-05 -1.0646225354973461e-05 -1.5016808153697818e-05  6.4182317422855297e-05 -2.9370312814205377e-05 -1.6963336572776370e-05  6.4492902322672206e-05 -3.0150567789875820e-05 -1.0060839575246824e-05  5.5765580395736299e-05 -4.3751552369877264e-05 -1.5730416268311233e-05  -7.1247314077177302e-05 -2.6252452759175826e-06 -2.5593072161707172e-05  3.0549817856014088e-05 -6.4454704996109481e-05 -1.3163042655966901e-05  -2.3488600536086679e-05 8.1162398089360595e-05 2.6931497246561224e-05  -4.2876346486234297e-05 7.4193203509957420e-05 2.6254545120481198e-05  -3.2831345461447946e-05 7.9815563333442550e-05 1.7681653611881902e-05  -3.3035008100419586e-06 7.2484388831971875e-05 1.5668537769579376e-05  -5.9784251617270248e-05 9.6372274493404655e-05 -6.2487873066890661e-06  -2.4961430443880938e-05 -6.6991510907657485e-05 -7.8132089833641743e-06  -7.1269197281398898e-05 4.7558818833039447e-05 2.6440573133811001e-05  4.1733981566657207e-05 -5.6183787378715641e-05 1.6997558981611046e-05  4.1624508658266643e-05 -5.7045501244881051e-05 1.0319476125857765e-05  -8.3272111499641834e-05 7.9202550349272345e-05 2.5521686099593377e-05  -8.1420300675988437e-05 7.7295376947000656e-05 -2.6946279147069008e-05  -7.1412887336715227e-05 4.3210514932756131e-05 -2.5341719965883732e-05  -6.0518541138149419e-05 5.6203045842352440e-05 -2.5184164823379329e-05  2.0187842706878676e-05 -6.6776661718617725e-05 2.4351760515977198e-05  1.1918884353727494e-05 -6.9241970450358416e-05 1.0740364695207512e-05  7.1931859803937411e-05 4.8893316216543606e-05 5.4311000387160494e-06  7.1210570543530624e-05 -4.6861691918202601e-05 -1.0095451500529010e-05  -8.1384425992646450e-05 1.9866059530416203e-05 -2.5633473278055940e-05  8.1814965401871305e-05 -7.5953609294462807e-05 5.2590790174111242e-06  3.3867768759308845e-06 7.2490792442589161e-05 2.6818605815052047e-05  -4.3356550425446198e-05 -5.5116471442183935e-05 2.4526381133979437e-05  -6.1546802232587567e-05 6.2960084771207219e-05 1.6622183378068479e-05  6.8804177845854702e-05 -1.7769462577080012e-05 -1.6727546493836161e-05  6.7214246267864510e-05 -2.2061228409886329e-05 -2.5828212007037865e-05  1.1666282217837888e-05 7.1385131026003166e-05 1.0544130896166950e-05  4.3721562628084852e-05 1.0404803319681500e-04 1.5103839050196353e-05  1.1252620145703501e-04 -5.5407302049290012e-06 2.6254902086698217e-05  8.3493083887411376e-05 -1.3067918142261721e-06 2.5731571748725057e-05  7.9537059380173895e-05 -7.6444264891031976e-05 -4.3268306606867358e-06  7.9786873021446569e-05 2.2516445538278911e-05 1.0052690243663544e-05  6.3378638022353729e-05 3.3034654316816402e-05 7.5442457570891244e-06  7.9678854956631443e-05 -7.6487635641060838e-05 1.5790474267353874e-05  -7.1283635822882559e-05 