<?xml version="1.0"?>
<VTKFile type="UnstructuredGrid"  version="0.1"  >
<UnstructuredGrid>
<Piece  NumberOfPoints="176" NumberOfCells="644">
<Points>
<DataArray  type="Float64"  NumberOfComponents="3"  format="ascii">0.3808210433871149 -1.763882641155164 0.817384939724187  0.3085523311331526 -1.969610247897571 0.6877920714727481  0.4909769421302074 -1.93099433805855 0.7575947101728453  0.4013802327098077 -1.958173202723359 1  -0.478103915917917 -1.622351537092959 0.6977077997690853  -0.7019581915565072 -1.428580415300582 0.6030955109277132  -0.5009139441539338 -1.349251873811594 0.5222432048981768  -0.600331598708143 -1.59479459233563 0.5327841362643094  -0.391399680066276 -1.237628786651703 0.6919365007968804  -0.2590693906238568 -1.20275231542913 0.4440646667880484  -0.0283024105191868 -1.319764063833097 0.6643409374643552  -0.3013774395956234 -1.46260667850183 0.4980611061261317  0.509899363520301 -1.411274404689723 0.7930410904030668  0.3070347646120418 -1.231266475456671 1  0.4006956025444619 -1.24843802094553 0.6812500201025888  0.2057664659883401 -1.423434689071494 0.7640294242581815  0.2382892175692876 -1.471591899036973 0.4955209781265861  0.2441482264665806 -1.68711095498594 0.2543611194868012  0.1435408183010254 -1.450724164001282 0.2140138195018315  0.364943845569369 -1.449405072691717 0.2215112330483742  0.2062702119573308 -1.209832294552009 0.5069451591351182  -0.03861139831730298 -1.305902836371665 0.3300992328426874  -0.05411455619544295 -1.180335689722473 0.5033519982168086  -0.2895078849523348 -0.9521440258122447 0.5362539270910905  -0.1357582835267979 -0.9866289761380859 0.6952505369826913  0.580573651550607 -1.903815473393742 1  -0.3199640933144202 -0.9429052360103518 0.2421718464526027  -0.2125504397148364 -1.162691776221664 0.1975610850782581  -0.1357582835267979 -0.9866289761380859 0.3047494630173088  -0.4351952344254975 -1.947915534096728 0.6879022171241533  -0.2402120605469595 -1.711293099448459 0.5951721536062687  -0.4600007231585856 -1.741224516301115 0.839054333966232  0.2714449589252247 -1.737958397311344 0.5450653594799665  0.1950572695963902 -1.642354837545477 0.8022942540786289  0.03120277905539251 -1.811956316928485 0.8125929633736308  -0.4440833295236094 -1.71425197172058 0.4678594158892408  -0.4183657802379684 -1.953020693211437 0.408732946950341  -0.5813842162651643 -1.903569591275731 0.523429982291165  -0.3808198010052772 -1.790558406603984 0.1504571686824595  -0.5815907792414369 -1.730327197418943 0.1999992988745308  -0.5077763251465293 -1.9258983009339 0  -0.4183657802379701 -1.953020693211436 0.2277978856468753  -0.07500943433028509 -1.474435204751512 0.1919497770721977  -0.3137778112923204 -1.68608512553939 0.2678397090627448  -0.03520767882359688 -1.640567625407656 0.3320536221747551  -0.1566368448175122 -1.793720957643859 0.18398156279419  0.05030182414384535 -1.803661568783909 0.2036923702794375  -0.03543509394030583 -1.764333212356711 0  0.2713321621710769 -0.9576575710401055 0.4639489892092016  0.2407869516577543 -0.9669233593494102 0.2422811437659894  0.05343103384430749 -0.9947375024938501 0.5  -0.2014555392941981 -1.478248236877164 1  0.003668755892212508 -1.493215934204981 0.787439376260352  -0.02232178777519556 -1.473130981466516 1  -0.154369246248236 -1.699740344597331 0.7947821971961868  0.1007019071959621 -1.603439299358557 1  -0.9480652577231136 -1.538949907681568 0.8061489537317872  -0.6368272338775195 -1.693027353228223 0.8099549854831261  -0.6846365793693017 -1.619799801115259 1  -0.87374366514047 -1.789830458324557 1  -0.3199640933144202 -0.9429052360103518 0.7578281535473974  -0.2659591891699546 -1.1284900652415 0.7985766483770914  -0.590119815534959 -1.900919676207915 0.3182654162986099  0.05343103384430752 -0.9947375024938501 0.7658315521872422  0.5834852897946156 -1.717308399664762 0.1887386398541893  0.397761442467862 -1.76067971301323 0.1654331644783746  0.5973730345669322 -1.89871943626909 0  0.5007099757113176 -1.928041854600282 0.3180605671254946  -0.01611705518357669 -1.173434577098943 0.1859369354259534  0.07154606132155185 -1.321715210143045 0  0.1477956984970681 -0.9854433942448714 0  0.1801353948751905 -1.193599542703115 0.2007384199400539  -0.7677466476962631 -1.430304235837895 0.8149664493944945  -0.5616060024380179 -1.386687091185208 0.8148643367043878  0.04801221851458279 -0.9952712092202078 0.2405432884014712  0.2407869516577542 -0.9669233593494104 0.7577188562340107  0.4037512339627746 -1.080144681274499 0.7916997388280334  0.4195556527163921 -0.9041709201262842 0.6951876610204601  0.3315216749971926 -0.9393992819363619 1  -0.7219618228038823 -1.307247678942268 1  -0.424931754213151 -1.254338206796035 1  -0.5126054700643949 -1.558802044544336 1  -0.7773345907527112 -1.628786731198925 0.6526384974201469  0.2154728929730389 -1.978777772385657 1  -0.2495643282831916 -1.975420059079501 0.523296014419804  -0.2558928613726579 -1.974796752974326 0.7590571066826004  0.1565705466232291 -1.98457914713868 0.5229942139642612  0.1475013517951027 -1.985472384864622 0.3180605671254942  0.04828442375762464 -1.791526417147052 0.4778949596205868  0.3259282302928228 -1.967898871204743 0.4084490649969672  0.1222954257414549 -1.987954951894562 0.7650725853231248  -0.1841632852949054 -1.481781513248469 0  -0.4201509119839557 -1.525914389044415 0.189673720245272  -0.2066708202968356 -1.710304351128139 0  -0.2063280620574955 -1.495866829825451 0.7392619680215531  -0.2831750095673835 -1.332000524373365 0.8438495817462545  0.1630944082857211 -1.206736717024586 0.8238329233967183  -0.4925834195271322 -1.072587773108498 0.7942257610232533  0.2828443174131989 -1.737656437702833 1  -0.3883412669983054 -1.709972901898877 0  -0.1591006558617752 -1.799092254611054 0.4138410682020805  -0.04681361121901211 -1.995389261734823 0.4985223211824886  0.4780196499422931 -1.718624147876173 0.4860276821231871  -0.2291981602613921 -0.9704387807865139 0  -0.4224459877560165 -1.246963081678484 0  -0.1715341369901447 -1.250280438524388 0  -0.06985643973039744 -1.505194664433397 0.523152896576856  -0.6681267201658774 -1.099552128393463 0.6661740090429282  -0.8234030488632201 -1.227864263700687 0.7971660546693747  -0.4956491309591998 -1.563380666785781 0  -0.570561261929752 -1.566210270682464 0.3269063393272681  -0.06425241373943445 -1.993671689601718 0.729857195431886  -0.04138279557917732 -0.9959241503885642 0  0.07147491772190356 -1.320431062428882 1  0.4566179955496571 -1.609390190456626 0.6989686505589768  -0.7913424350245954 -1.833874833437536 0.7298481380810278  -0.703769127003654 -1.86644453447963 1  -0.6141724175832546 -1.893623399144439 0.7648375940174668  0.5038238211581905 -1.074271211065006 0.5112063182307277  0.384799343308686 -1.090040125494568 0.2000785832607395  0.3833720884367542 -1.248266169376449 0.3125100964111098  -0.07109493962348024 -1.160016603803898 0.7913171746870674  -0.2070688864027299 -1.749288561046629 1  -0.3435919104164638 -1.966159150560913 1  -0.1572369759532961 -1.984513509578723 1  -0.4792183519131534 -1.094876157717112 0.5312084515566817  -0.4088784021612257 -0.9098780294493575 1  -0.2291981602613921 -0.9704387807865139 1  0.1055482849989484 -1.63881390081868 0  0.04658873361579337 -1.995411410245547 0  -0.3004712434665469 -1.361497103422282 0.2311894560585964  -0.3577107155310289 -1.419581028094554 0  -0.1397662008473739 -1.986234230736643 0  -0.8300753132502592 -1.509513793106689 1  -0.1714146569792246 -1.249399926207965 1  -0.5229419073512893 -1.071131864134972 0.1858598554011229  -0.5521062382202796 -1.211666613348794 0.3442023460192692  -0.7757759682717937 -1.842195283264316 0.4985126599772499  -0.7840616717201718 -1.583902828399041 0.4377923672640045  0.4296356271564918 -1.668302941522659 0  0.2329436680789611 -1.977057051227738 0  0.4181796157261328 -1.953077165598708 0  -0.2405080359740243 -1.976312026018243 0.3182654162986064  -0.04681361121901163 -1.995389261734823 0.2684782053199095  0.3259282302928228 -1.967898871204743 0.2276720692540216  -0.5245757081628545 -1.920802263809248 1  0.4437787684872145 -1.472384709319954 1  0.6936374543645428 -1.490116486267707 0  0.617899748202294 -1.653792821188109 0  0.3625909582016644 -1.44728628771407 0  0.6027785381133539 -1.359332156263882 0.2124371689903601  -0.3745805923603168 -1.706049989398783 1  0.3050541620145898 -1.223363442299307 0  0.5587472371219874 -1.203112900522971 0  0.02911795850987068 -1.997132131403467 1  0.02102039698148424 -1.670231480651327 0.6665040657880474  -0.5554583074974289 -1.700068917560503 1  -0.3793482891095545 -1.432319692681395 1  -0.6869697439873288 -1.871540571604282 0  -0.7580030332512193 -1.620602597475575 0.200800306043187  -0.04382570390722906 -1.692004976314984 1  -0.04138279557917732 -0.9959241503885642 1  -0.775775968271794 -1.842195283264316 0.2684499835474483  0.1477956984970681 -0.9854433942448714 1  0.1011187221479815 -1.772944272062136 1  0.5105785823554512 -1.583270420542069 0.3212501110323914  0.4598397724961487 -1.407027747603131 0.4646693967668116  0.2622963428434327 -1.552259734357269 1  -0.7625848589994415 -1.249272832911995 0.4545509433042903  -0.3261211353105415 -1.967879871718833 0  0.49198228108192 -1.930689371821647 0.5229837268563096  -0.670056525276606 -1.377886873936386 0.2250212001955873  -0.6240956319681428 -1.097419055583654 1  0.4999697403346577 -1.076876380065217 0  -0.5391031786369436 -1.386651023185445 0  0.3315216749971926 -0.9393992819363619 0  </DataArray>
</Points>
<Cells>
[...]
<PointData  Vectors="f_18"> 
<DataArray  type="Float64"  Name="f_18"  NumberOfComponents="3" format="ascii">5.2817044327036463e-03 -2.4579843376217939e-02 -1.9520698913181333e-03  3.6283801501681250e-03 -2.3525809666614234e-02 -1.2415751027673996e-03  5.8355956101578000e-03 -2.3110385176230631e-02 -1.6300352671844022e-03  4.7830790726617091e-03 -2.3379390071200393e-02 -3.0984516812909723e-03  -7.5248179137755219e-03 -2.4978298929569116e-02 -1.1768840185271852e-03  -1.2080865883693240e-02 -2.4242433259340716e-02 -5.7300599715688887e-04  -1.0209925874773105e-02 -2.7129724445505921e-02 -1.0068885835848120e-04  -9.2816847867660274e-03 -2.4209941479909684e-02 -1.8465431630776091e-04  -9.4671895987707526e-03 -2.9760008216658865e-02 -1.0755460564748787e-03  -6.9410555277389235e-03 -3.1837066417054555e-02 3.5638276698125913e-04  -6.7565036369961640e-04 -3.0864010317931213e-02 -9.4651976826344933e-04  -5.8261956562533565e-03 -2.7629452341261834e-02 -5.5148313117378876e-06  9.5905628529779473e-03 -2.6521889608231899e-02 -1.7621403772011990e-03  7.6226213408978434e-03 -3.0959783132003760e-02 -2.8511597212662709e-03  9.4487526589010634e-03 -2.9563927657266925e-02 -1.0309641554140892e-03  4.0704274863921051e-03 -2.8783567218599475e-02 -1.5301112159126985e-03  4.5162766691916219e-03 -2.7921709932894265e-02 -5.6367777321275507e-05  3.6471478530555315e-03 -2.5707745943472821e-02 1.4037644688692013e-03  2.7311321050942946e-03 -2.8631115457174075e-02 1.5907190077541244e-03  6.8734536549642979e-03 -2.7395086980047195e-02 1.5854503297281948e-03  5.4369531289188968e-03 -3.2197373750966353e-02 -5.2928904489418427e-05  -9.8407474946037000e-04 -3.1150995405777832e-02 9.4501548371340408e-04  -1.5597545522595445e-03 -3.3653241070771653e-02 -4.4459298935172835e-05  -1.1125711294431464e-02 -3.6849022142225608e-02 -5.0604575208820305e-05  -5.2836307112959389e-03 -3.8103740362519574e-02 -9.8830471970961999e-04  6.9917769329043214e-03 -2.2908565950494918e-02 -3.1494624392597870e-03  -1.2339005046297447e-02 -3.6161692669333882e-02 1.6344932016940587e-03  -6.0557005277710003e-03 -3.3028535029306701e-02 1.7554411342076107e-03  -5.2154760876635007e-03 -3.7967721298381323e-02 1.0449118865051106e-03  -5.3354528084670521e-03 -2.3222979196812953e-02 -1.1352503233755375e-03  -3.7014326591144581e-03 -2.5480227500366062e-02 -5.7475889386963833e-04  -6.5301098595921337e-03 -2.4260602239261218e-02 -2.0410731413716596e-03  3.8798062057024949e-03 -2.5177453876546796e-02 -3.4419812772115276e-04  3.1116912492616246e-03 -2.6262909376673509e-02 -1.8488218284622472e-03  3.6677292717648773e-04 -2.5075399196434468e-02 -1.9017331090838705e-03  -6.5136295410589814e-03 -2.4458972435071717e-02 1.9860442027846891e-04  -5.1478066337838860e-03 -2.3176705943964204e-02 4.9626649756090338e-04  -7.1174774116310631e-03 -2.2700410208962879e-02 -1.6089855937279153e-04  -5.3870473781029472e-03 -2.4294079005219123e-02 2.0196168936789227e-03  -8.0710352774864581e-03 -2.3517692622085352e-02 1.7434025142108094e-03  -6.2807655996387204e-03 -2.2930913683338640e-02 2.9046343961409539e-03  -5.1681293855525478e-03 -2.3176520796087355e-02 1.5957575728624692e-03  -1.5039534545360717e-03 -2.8431646593301826e-02 1.7557062201959126e-03  -4.9420409691842068e-03 -2.5344543364322975e-02 1.3460300885428443e-03  -6.4184911512162935e-04 -2.6503096673180036e-02 9.9907744459460713e-04  -2.3231824234561209e-03 -2.4959344344620066e-02 1.8294739815111938e-03  6.0237520336378625e-04 -2.5049993741379582e-02 1.7000790219065625e-03  -6.2469212589530160e-04 -2.5369412414575108e-02 2.9194510825753766e-03  1.0516542393523965e-02 -3.6888645251439041e-02 2.2293086028640351e-04  9.2633234009593512e-03 -3.7302071423291401e-02 1.6103291814945722e-03  1.9980638561471419e-03 -3.8395835883119456e-02 5.1263840471125564e-05  -3.9078366360953132e-03 -2.8095879532601568e-02 -2.9053004511582037e-03  1.1139802176063947e-05 -2.8318670208817093e-02 -1.6888880069622313e-03  -5.5384704772146306e-04 -2.8589135327762503e-02 -2.8930294735437056e-03  -2.4298065743269047e-03 -2.5850261962323297e-02 -1.7848799806045226e-03  1.6512842297952423e-03 -2.6933634915715526e-02 -2.9120433478071811e-03  -1.3253273430009236e-02 -2.1285626858766733e-02 -1.7702002136810609e-03  -8.9767062468717289e-03 -2.3407635809460751e-02 -1.8250341984194052e-03  -1.0047108096373105e-02 -2.3473655637498085e-02 -2.9465406958869727e-03  -1.0598333364722743e-02 -2.1398616744456415e-02 -2.9602480255826523e-03  -1.2298902759527127e-02 -3.6416591836571352e-02 -1.5203238619457802e-03  -7.8856846372635878e-03 -3.3156780246094399e-02 -1.6145921720089247e-03  -7.2337936930793600e-03 -2.2618839370850633e-02 1.0670039004713320e-03  2.0810861535650945e-03 -3.8302177899837427e-02 -1.5110580059334974e-03  8.0141450984225759e-03 -2.3697788003481161e-02 1.7820343416605339e-03  5.4632681756982271e-03 -2.4495727547540043e-02 1.9147481371792271e-03  7.1321746707609310e-03 -2.2731303237548642e-02 2.9380104280387889e-03  5.9382730930721316e-03 -2.3055964654987958e-02 1.0077010871941188e-03  -4.9657356825392324e-04 -3.3706920234386241e-02 1.7843470391379164e-03  1.5603752334758716e-03 -3.0809807452720547e-02 2.7726864000067845e-03  5.5997401072399615e-03 -3.8300054067802715e-02 2.5468991209078979e-03  4.9178715965230643e-03 -3.2647017450985395e-02 1.7327917243122573e-03  -1.2784195639529384e-02 -2.3491400822881002e-02 -1.7790168106266702e-03  -1.0722210009291154e-02 -2.6132219400659535e-02 -1.7743436142969710e-03  1.8026837839609194e-03 -3.8303598744549021e-02 1.4426512332834135e-03  9.2547789564470049e-03 -3.7288047734627919e-02 -1.5257673252923589e-03  1.2007882307032853e-02 -3.2105436180320003e-02 -1.6509160306686739e-03  1.6242105356145634e-02 -3.4807798019155400e-02 -1.0917849807463918e-03  1.2824648964330543e-02 -3.6274937066968813e-02 -2.7671415370730331e-03  -1.3755291584581929e-02 -2.4712785111358892e-02 -2.8443438083072818e-03  -9.9254491694277976e-03 -2.9189196615816079e-02 -2.8007962495637936e-03  -8.4130210422284808e-03 -2.5253599267777243e-02 -2.8677618051560516e-03  -1.0950363564563801e-02 -2.2542689566025245e-02 -8.6448418313768796e-04  2.5660526010175045e-03 -2.3807398961635536e-02 -3.0993138050138275e-03  -3.1019226898246154e-03 -2.3565066845636064e-02 -1.9114197697712862e-04  -3.1573770549372026e-03 -2.3605948728628898e-02 -1.6581348357438751e-03  1.7926661722182250e-03 -2.3753018882985994e-02 -2.2606604106674216e-04  1.6828263521336184e-03 -2.3772128813747743e-02 1.0055413077602318e-03  5.5471537798833747e-04 -2.5187288565672216e-02 8.8677132377782731e-05  3.8056269295867217e-03 -2.3427315968847277e-02 4.6324109171419530e-04  1.3964273040796406e-03 -2.3805578780742510e-02 -1.6672085192008098e-03  -3.6377708795575564e-03 -2.7977625294782808e-02 2.8968599170596941e-03  -7.3769448995747175e-03 -2.6079648260410565e-02 1.8063995621145693e-03  -3.2225640938624406e-03 -2.5531634158667028e-02 2.8806105971254082e-03  -3.8540296645778460e-03 -2.7854352704990926e-02 -1.3680262735732351e-03  -6.3261683246249555e-03 -2.9528131504827613e-02 -1.9475863720527582e-03  4.3621023041796412e-03 -3.2614549443932557e-02 -1.8689447230956968e-03  -1.4141537299957945e-02 -3.0463457832233188e-02 -1.6828116369954063e-03  4.0235978806845776e-03 -2.5232395764290955e-02 -3.0214114733971712e-03  -5.8287648725617609e-03 -2.4849385271457410e-02 2.9216647486171596e-03  -2.3710089847560323e-03 -2.4968938166893728e-02 4.5450524264498143e-04  -7.0603258472991975e-04 -2.3794816491582525e-02 -7.8251169483899998e-05  6.7963345072603112e-03 -2.4373154732265728e-02 2.6350341950498340e-05  -8.8870160358792399e-03 -3.7397747847401443e-02 2.6981533450289911e-03  -1.0027073857328525e-02 -2.9164755157598359e-02 2.8909164668555901e-03  -4.5204915094525554e-03 -3.1634611993585519e-02 2.7687603927608767e-03  -1.4241285756902838e-03 -2.8009711756655668e-02 -1.5260067273451674e-04  -1.6406848233691502e-02 -2.6810581181391610e-02 -9.2617492529961144e-04  -1.5995360076483139e-02 -2.3538962909011529e-02 -1.6637948015440097e-03  -8.1076209542426773e-03 -2.5223466493623264e-02 2.8899425576477990e-03  -9.1016024723743136e-03 -2.4646037179702471e-02 1.0325175241033564e-03  -8.6565373035761280e-04 -2.3819090663958653e-02 -1.4460180654591527e-03  -1.5566550931575579e-03 -3.8269665393083345e-02 2.8373172196250545e-03  1.6769754509270963e-03 -3.0937648232712552e-02 -2.8271029327355465e-03  7.1563642907433566e-03 -2.5293368943845186e-02 -1.2626345869411312e-03  -9.5728377806056659e-03 -2.1770720842687153e-02 -1.3848254731382329e-03  -8.5402295362984691e-03 -2.2267634776781037e-02 -3.0098176677331328e-03  -7.4611220750363198e-03 -2.2592938160881912e-02 -1.5896086104579743e-03  1.4206378204556371e-02 -3.0363334358072282e-02 -1.0764675614732397e-04  1.1436304850620253e-02 -3.2175363101070151e-02 1.6645993384841711e-03  9.1414735049529221e-03 -2.9744784691064778e-02 1.0234584835739349e-03  -2.1516583256198868e-03 -3.3995577573564174e-02 -1.6652540073351873e-03  -3.0607596041773311e-03 -2.5327117102868158e-02 -2.9780045888139041e-03  -4.1881490201919735e-03 -2.3503465758820844e-02 -3.0298210827520264e-03  -2.0013388210968902e-03 -2.3793158552640265e-02 -3.0508622662313795e-03  -1.3417835004904729e-02 -3.0428821073501384e-02 -1.3026714663814644e-04  -1.5770890550660336e-02 -3.5252013305485407e-02 -2.4773777750975307e-03  -8.8913365904449478e-03 -3.7368691514588492e-02 -2.7298017983422075e-03  1.6577576739250162e-03 -2.6462952447163752e-02 2.8773355018230826e-03  4.4049435673713987e-04 -2.3771606948797517e-02 2.9361104721108522e-03  -6.4875462563633414e-03 -2.8873869693018840e-02 1.6165926868406705e-03  -7.1089920233796270e-03 -2.7707735745713367e-02 2.8979616522214957e-03  -1.8333780495080794e-03 -2.3723591434622038e-02 2.9268778064143993e-03  -1.2534288216276482e-02 -2.2575089809825942e-02 -2.8942825816854110e-03  -4.3173289746945565e-03 -3.1685009306509526e-02 -2.7486431094297281e-03  -1.4748952549249759e-02 -2.9922534097734380e-02 1.9331547160433059e-03  -1.2767968481008710e-02 -2.7831856178005064e-02 9.2321454209456759e-04  -9.3920813534990981e-03 -2.1829925433186327e-02 1.7321345898679669e-05  -1.1410234275571101e-02 -2.2654647803672968e-02 3.7017923635886889e-04  6.4157217498947957e-03 -2.4985132464031147e-02 2.9064043155243033e-03  2.7002693253338249e-03 -2.3678192702745099e-02 2.9130985356258807e-03  4.9368720950819416e-03 -2.3294272457359124e-02 2.9296388118667076e-03  -3.0373544643890948e-03 -2.3576789687163754e-02 1.0331498052713354e-03  -6.9763635439319964e-04 -2.3756570234244923e-02 1.3028721891913898e-03  3.7904798789148613e-03 -2.3436530521022889e-02 1.5607107477219977e-03  -6.3633556823919505e-03 -2.3002320898006134e-02 -3.0307876448796680e-03  8.0424142823721755e-03 -2.6639673086014028e-02 -2.9425239466179857e-03  1.1220719320904094e-02 -2.4021028844256338e-02 2.8749256754586052e-03  8.8750440534579398e-03 -2.3803435560011681e-02 2.8767786486729539e-03  6.8672654036606813e-03 -2.7467688245579266e-02 2.8837491606748720e-03  1.1500684033465982e-02 -2.5920961412572122e-02 1.6252879603052201e-03  -5.5646472373992381e-03 -2.4991421697109821e-02 -2.9919097299487716e-03  7.7174010034054032e-03 -3.1083856273258680e-02 2.8053643451617653e-03  1.2968106882544333e-02 -2.7966999108638389e-02 2.7610155606791757e-03  2.5591362510998968e-04 -2.3889334398629555e-02 -3.0759351371751537e-03  2.9342638092400963e-04 -2.6316876037807437e-02 -1.0262900621457575e-03  -7.9460400573413154e-03 -2.3999130059186437e-02 -2.9515961565979723e-03  -7.3074702528822750e-03 -2.7543976189827291e-02 -2.8637906406227382e-03  -8.4190427167683251e-03 -2.2244805841264665e-02 2.9334824630122408e-03  -1.0798721479429797e-02 -2.2658086360677766e-02 1.7803196035937386e-03  -7.0242876031293496e-04 -2.6135949563771275e-02 -2.9823242363806509e-03  -1.4980683242660064e-03 -3.8359727361267699e-02 -2.7237964000125748e-03  -9.4225507694898729e-03 -2.1809629630247681e-02 1.3679373503594910e-03  5.7784061014916335e-03 -3.8173003314344561e-02 -2.9572809408742080e-03  1.4005244296995973e-03 -2.5393488983768572e-02 -3.0230745260670412e-03  8.0465909741796269e-03 -2.5097168908639153e-02 9.9392867834634333e-04  8.8289170715852589e-03 -2.7106250874113912e-02 1.2430998377579406e-04  4.5606057194226392e-03 -2.7019075608896950e-02 -2.9531642939230962e-03  -1.5041059786131692e-02 -2.4357909601597921e-02 3.0113157242919861e-04  -4.0686314791194018e-03 -2.3430944351827260e-02 2.9040530412622169e-03  5.8337613860784572e-03 -2.3099293083492654e-02 -2.3610322832093511e-04  -1.2216240565237431e-02 -2.4855158716589661e-02 1.5973120069671743e-03  -1.5871957215926245e-02 -2.7730215236587988e-02 -2.7900514110603940e-03  1.4136373280538584e-02 -3.0402123846158521e-02 2.7909643239398593e-03  -1.0364959756151296e-02 -2.6280771757846936e-02 2.8606031567601341e-03  1.2617411935263433e-02 -3.6214699635766810e-02 2.8565065976861917e-03  </DataArray> 
</PointData> 
</Piece>
</UnstructuredGrid>
</VTKFile>