<?xml version="1.0"?>
<VTKFile type="UnstructuredGrid"  version="0.1"  >
<UnstructuredGrid>
<Piece  NumberOfPoints="190" NumberOfCells="679">
<Points>
<DataArray  type="Float64"  NumberOfComponents="3"  format="ascii">-1.146527028962373 1.167114312334814 0  -0.9184143406250429 1.15951227012599 0.181890248271007  -1.117408632183515 1.349324948359656 0  -1.127667895979856 1.429138092744414 0.1957268739948787  -0.843554369120634 1.571972381406213 0.1893355977975628  -1.023406865707073 1.709833810979671 0  -1.105932760739799 1.665722801080373 0.2684407995307424  -0.6404454764412717 1.557452185064736 0.3229483011552194  -0.6049140089552396 1.896431906697228 0.3184572261395962  -0.5174396855537765 1.720603924206695 0.4455678853971146  -0.6789195424108355 1.679413385346867 0.172716471184192  -1.297015254039048 1.200330857140984 0.198215552709849  -1.513321347298536 1.293450377028231 0.318300028577906  -1.577555788316503 1.215180484183664 0  -1.466118612717564 1.06068664004738 0.1854634457573004  -1.417954567522155 0.9826958282046394 0  -1.687765770332819 1.064693265863353 0  -1.776037932920274 0.899547665238146 0  -1.538403791801157 0.8564673244602555 0.1943213337786517  -0.3365162964824625 0.9378841800729312 0.2405432884014713  -0.4415185705098927 1.234655578466227 0.3250771953421422  -0.5209854872342006 1.060897459510266 0.207962911636449  -0.3313057231869522 0.9394647902018173 0.5  -1.264272254491768 1.537267213620411 0.5235172542791873  -1.237771957270619 1.559015445500463 0.7085720153548473  -1.382377160656424 1.440341022038268 0.687926620973708  -1.192571215110794 1.302722308512609 0.4782864723562278  -0.8092614669963184 1.031632698922229 0.6791456875279881  -0.747028838074304 0.9125730243322504 0.8266226570201092  -0.984599909939442 1.149923132667671 0.7848661116286425  -0.9141816130997213 0.7634549129288799 0.8251041360935342  -0.867837335236696 0.8425368172721063 0.5309559614124686  -0.6564424890631831 0.7486858911845402 0.7578281535473971  -0.631840153311841 0.7688765063405124 0.5362539270910898  -0.688391004567446 1.30457807950404 0.2279694399321673  -0.632518690427178 1.508037302070591 0  -0.5246326138228607 1.437575172319297 0.1874291779963437  -1.162812384258729 0.869959537678654 0.1967137241630482  -1.098472765100997 1.059915202872253 0.2606957431243106  -1.34993589569112 0.9730419110075272 0.3324974874943423  -0.786137885070551 0.6108071024727797 0.5  -1.027957718484444 0.807486031122658 0.3458033622348064  -1.052829203020905 0.5589047274949172 0.5085767754743842  -1.190015801986949 0.4859549610262058 0.2855300420029705  -1.156663002991701 0.588550599634463 0  -1.391582474002526 0.487267687798005 0.2096997911392877  -1.351229656953599 0.5151732646136987 0  -0.7757759682718035 1.842195283264311 0.2279005027763657  -0.7757759682718033 1.842195283264311 0.409013949502827  -0.502990862578652 0.859573871324515 0.3047494630173089  -1.061606909442319 0.9785837600988989 0  -1.315004706961013 0.6972167789990056 0.7557377227898123  -1.232115836721338 0.7631644816213363 1  -1.341896336811819 0.9405672826140373 1  -1.519741993526035 0.8886244139057863 1  -0.686969743987339 1.871540571604279 0  -0.7259496343859416 0.6841466981309493 1  -1.026493956220598 0.7984228743741494 1  -0.8426708147520899 0.5346142571826912 1  -1.24261630433174 0.4137133052539228 0.6762314288941822  -0.88740992893716 0.4509132616824052 0.6953011277941856  -0.947388990623786 0.3051831352366393 0.5363564105802381  -0.3992359231948405 1.264547218604192 0.6584240094702515  -0.5717031409302165 1.095411659227544 0.7615148223574963  -0.5307010043682088 1.3826952685512 0.785767467294626  -0.729538575546018 1.293711139943365 0.7838102578313236  -0.7951415571745835 1.035950760589855 0.3163792525461149  -0.7096214621866395 1.292436199645492 0.5012219118924913  -0.9057171194088783 1.167072336234832 0.4757488249981465  -0.5897572390507918 1.041671125967472 0.5035706790610246  -1.314905435161327 0.6745560659922012 0.4904638895724882  -1.082991713996318 0.5611808793048219 0.7692622717403119  -1.059160609976377 0.7755841138468872 0.6725939498558352  -0.8710834293743044 1.505323501426417 0.4555006884842235  -1.105932760739799 1.665722801080372 0.4985114786665089  -0.8055581621776347 1.507858556983968 0.6786829354555336  -0.9261071527929903 1.761841591057063 0.523708165574422  -0.9290527823196455 0.3656295132424565 1  -1.257212323284817 1.543061149426666 0.3183000285779041  -1.323743981377913 1.488460028710997 0  -1.395988323856183 1.429170629081718 0.2278152199502795  -0.9341416419748636 1.757547067117675 0.3184572261395966  -0.9856468025470075 1.360627069214379 0.677554604785177  -1.201967891204917 0.876419588486421 0.481981018650006  -1.109788677070211 1.078120207642546 0.5482802068902228  -1.43290247623816 1.102502474805115 0.8016223533815361  -1.625681761742057 1.156538815892274 0.729852265836384  -1.382702032230889 0.9409546224454185 0.6727156764281601  -1.723626336383972 0.9976028656093632 0.7650330778500383  -1.308120441486432 0.7203201397046752 0.2251752624482485  -1.234622620676914 0.8484318635280916 0  -1.49971092276425 0.6607539289614928 0  -1.358753583540909 0.4331344014522989 0.4586164123344102  -1.557364917173048 0.7833533360165803 0.4519990588587856  -1.501461285193593 0.980762205338028 0.5025361493182261  -0.7120164604963927 1.653427389927467 0.5133392593030189  -0.6072692169943243 1.895717462149367 0.5362964439456972  -0.829538772807962 1.24650646003822 0  -1.155399090771521 0.9863986739672237 0.7842371480028336  -0.6715976806087487 0.9382906322624599 0.2026049840720276  -1.735554095143283 0.9752875985231242 0.3176742093519687  -1.820074272553177 0.8171614684481179 0.2274378431626041  -1.50754886084441 1.300484172123991 0.5233657346304179  -1.503511147564677 1.30540413999066 0.759039402697864  -1.566418818365817 1.228750921332943 1  -0.5831223326863202 0.8088581884632724 0  -0.7259496343859416 0.6841466981309493 0  -0.8777650763659706 0.8392187700021254 0.1791968347231586  -1.08750656824373 1.473373412162729 0.4186198326001243  -1.447624472225162 1.37350225092525 1  -0.836286829552076 0.9546547382372724 1  -1.598442001919816 0.8131212705610243 0.8005177185861571  -1.7677624176777 0.9150300652967593 1  -1.679490255090245 1.080175665921967 1  -1.001523373036278 1.311368911517147 0.3182110729693932  -0.9546612534662056 1.436284063075672 0  -1.081385764646495 1.38355427730711 1  -1.215281538736748 1.23842223823042 0.7322010707000174  -1.090347441409376 1.674053327819833 0.7298514348497547  -0.9253516653358563 1.762245407515972 0.7647596514128244  -0.6561306764426973 1.122404365790671 1  -0.5831223326863202 0.8088581884632724 1  -1.033708622788163 1.501105289131701 0.8095881280656126  -0.8326984114354637 1.541357275927116 1  -1.65956562518322 0.6779485992594181 0.1896533736052345  -0.859137602666504 1.164403067154992 1  -0.3346493386806206 1.523066756827354 0.432978452806852  -0.4252082943158828 1.690757594369593 0.2517423600102111  -1.157675661796024 0.2874316557483794 0.8237284357888865  -1.132192252194075 0.5760415911141321 1  -1.250327345612778 0.359966722685725 1  -0.6564424890631833 0.7486858911845402 0.2421718464526029  -1.015880871007985 0.6194584810981399 0.2107616280594863  -0.88740992893716 0.4509132616824052 0.3046988722058144  -1.341242197725124 1.124251621324452 1  -1.570108367541714 0.5323200146201426 0.3214131146464111  -1.395988323856182 1.429170629081719 0.4087848372055307  -1.460830652517014 1.031080833577986 1  -0.4431978912794227 1.258461435479526 0  -0.8426708147520899 0.5346142571826912 0  -1.003191405728223 0.7802335023438158 0  -1.111399709213698 0.3143340114943649 0.3936982570693697  -0.3525296771925283 1.668146412112005 0  -0.5077763251465404 1.925898300933896 0  -0.8582612650818664 1.798105973567126 0  -1.564690195006766 0.6196325639107423 0.6892222911693506  -1.007924465648459 1.718109326222245 1  -1.044995883534605 1.072574953573793 1  -0.510994707505987 1.404217254440446 0.5163700951909265  -0.9566144206959937 0.2747709680011161 0.7579149180877363  -1.346016855126876 1.122799247643388 0.5201991910084716  -1.739883507367786 0.9671878379506875 0.5226731680922776  -1.811833783889858 0.8325783383860297 0.6875310263852326  -1.198818116171656 1.24025052295321 1  -1.310173544228634 1.499596998661683 1  -0.7896033500135112 0.6065844212219812 0.7595504241117756  -0.5790841934569149 1.560047235753897 0.6688754989314865  -0.4193563900796843 0.9042774282245836 0  -0.502990862578652 0.859573871324515 0.6952505369826911  -1.857951139271881 0.7317680986975148 0  -0.9819498088636408 0.1832666661363625 1  -1.458761442175848 1.359931813775971 0  -0.9290527823196455 0.3656295132424565 0  -0.6409506341987898 1.096351193148543 0  -1.370317109984933 0.6068829405856371 1  -1.636811764939919 1.142976867755874 0.2684766850732475  -0.854850831960664 0.9759153804258832 0  -1.178992651785606 1.607254374851652 0  -0.5702152500099751 1.383891866592444 1  -0.4213746699951029 1.196244977459891 1  -0.2405674396764836 0.9669899475809407 0  -0.3177026153873686 1.177369199564174 0  -1.573062635283103 0.710522813525687 1  -0.8967436892907179 1.368269408810351 1  -0.7036168792142508 1.675069862734098 0.8042164232910654  -0.8427788650232531 1.8063814888097 1  -0.7827528258206699 0.6149318091030841 0.3055073908801145  -0.6560191600603796 1.594701905386204 1  -0.9772470823615382 1.495419026301591 1  -1.165422214636327 1.618391344802338 1  -0.5821061254012698 1.903350602533428 0.7233926634179388  -0.6701703609710137 1.87663660872893 1  -0.7597161751969241 1.849473182952581 0.6880608757141868  -1.636811764939919 1.142976867755873 0.4985204057412241  -1.663935857491406 0.5750728785195803 0  -1.222473603421901 0.3518873350067027 0  -0.9566144206959937 0.2747709680011161 0.2420850819122637  -1.820074272553176 0.817161468448121 0.4079105755413405  -0.4193563900796843 0.9042774282245836 1  -1.46295663988695 0.3280486082887119 0  </DataArray>
</Points>
<Cells>
[...]
<PointData  Vectors="f_18"> 
<DataArray  type="Float64"  Name="f_18"  NumberOfComponents="3" format="ascii">-8.0153271777942472e-02 8.2292876707415280e-02 1.2341303295186991e-02  -7.5575514772044813e-02 9.6350202826649717e-02 8.1394331267524919e-03  -7.0241420507043476e-02 8.5339825649350401e-02 1.2670856915404297e-02  -6.6543788348465735e-02 8.5170115950726127e-02 7.7837237142246319e-03  -5.1605883868559230e-02 9.6421184896497758e-02 7.9938843379254720e-03  -5.2974521847606315e-02 8.8894546316571552e-02 1.2525891719882894e-02  -5.6800388534639291e-02 8.6374798573005160e-02 6.0137830944773990e-03  -4.2882366046435930e-02 1.0447964160381798e-01 4.6454473500204029e-03  -3.1586299724354859e-02 9.8684229774810492e-02 4.9204477074610096e-03  -3.1650906853829902e-02 1.0443200051137259e-01 1.6180992763933730e-03  -4.0651124143438085e-02 1.0058053056899646e-01 8.3344934520299587e-03  -7.9951982757483719e-02 7.5020905442265834e-02 7.8422103488605330e-03  -7.8054747488748411e-02 6.7612319799378789e-02 4.8391370128630521e-03  -8.1408222859628232e-02 6.3583569932547102e-02 1.2868950561474623e-02  -8.7124297532074554e-02 6.4050313119705826e-02 8.1235347059045327e-03  -9.0987489614548681e-02 6.4120277488415783e-02 1.2611499918365838e-02  -8.6797739303133267e-02 5.5839646163742145e-02 1.2808808230297699e-02  -9.1719413215002973e-02 4.7467154621653865e-02 1.2936073947576641e-02  -9.5593650858466550e-02 5.4309812713768363e-02 7.9723109308324457e-03  -5.4325428727939440e-02 1.5230215525918869e-01 6.5811932720955552e-03  -4.4497002139479783e-02 1.2476547535783847e-01 4.7438985334432244e-03  -6.3074448749410789e-02 1.2812387796911737e-01 7.0404619189971870e-03  -5.3864943292529707e-02 1.5187884765290566e-01 8.2719328457640535e-04  -6.5265330019753098e-02 8.0420350747485422e-02 -3.0329222663730857e-04  -6.3954893931093632e-02 8.1497623726663138e-02 -4.9045898311305220e-03  -7.1026956891787799e-02 7.5101622642226376e-02 -4.2402254851539633e-03  -7.3763696855134897e-02 8.1646147462609744e-02 1.1248868289559656e-03  -8.1537321120658840e-02 1.0487954017299080e-01 -3.2108606531246276e-03  -9.0604874353772666e-02 1.1138509256538505e-01 -6.4585675490314914e-03  -7.8175046831171158e-02 9.2178710510252407e-02 -5.9118005388298939e-03  -1.0880296677621298e-01 9.1978560680702356e-02 -6.7485541591755550e-03  -1.0012337099447287e-01 9.8114344678555274e-02 2.5275849067353398e-04  -1.0586734873682364e-01 1.2215931589700868e-01 -4.5882561659389975e-03  -1.0150713080050468e-01 1.2538191666988394e-01 -5.4890196226288275e-05  -5.7225321544823599e-02 1.0852104419873590e-01 7.1072805196321738e-03  -4.4500040771214604e-02 1.0626610868025972e-01 1.2315843223503571e-02  -4.1043237283375535e-02 1.1250473825625878e-01 7.8602466877868704e-03  -9.8798043514294415e-02 7.4557998384464225e-02 7.7671454041717972e-03  -8.5637063351149706e-02 8.3430205311507216e-02 6.1522388480259333e-03  -9.1560357114970375e-02 6.7098564461351790e-02 4.5624401363594811e-03  -1.2668349644845792e-01 9.9097836296210676e-02 1.1641063358161612e-03  -1.0393771703951667e-01 8.2618212027375640e-02 4.2686359034967954e-03  -1.2492325731214153e-01 6.7509862938227194e-02 3.8206495362000576e-04  -1.2371277558998985e-01 5.1811283987272659e-02 5.5285483754444024e-03  -1.1821228040552513e-01 6.1229107605721318e-02 1.1945623851580399e-02  -1.1509843327325747e-01 4.1386735560279650e-02 7.4641563862760654e-03  -1.1556764104586917e-01 4.5213350029532889e-02 1.2095709042210386e-02  -4.0040308213397900e-02 9.5188013945112684e-02 7.0505414915636479e-03  -4.0199020069649267e-02 9.5269758977675797e-02 2.4972040734482191e-03  -8.1287450956027393e-02 1.3971148415315543e-01 5.3072670309110065e-03  -9.1052756195966270e-02 8.4866303603721008e-02 1.2543501919453479e-02  -1.0709646997121339e-01 5.8037157236176223e-02 -5.2669342817785059e-03  -1.0541676355912617e-01 6.6369022027222460e-02 -1.0607545523529681e-02  -9.3665784671622190e-02 6.6794756945632486e-02 -1.1235223510380836e-02  -9.4797963432293630e-02 5.6549633696397823e-02 -1.1518333821482379e-02  -3.5893817013245864e-02 9.7301594216717233e-02 1.2752029039695346e-02  -1.1723895978892995e-01 1.1123937135615825e-01 -9.7423771300139163e-03  -1.0529175605880706e-01 8.2892236804766220e-02 -1.0686530265339141e-02  -1.3595775287949260e-01 8.7362199479934635e-02 -9.0619241627217118e-03  -1.2531380920682231e-01 4.3026270938641746e-02 -3.0366448375902452e-03  -1.4319679300153948e-01 7.4375524964450240e-02 -3.2858609466611117e-03  -1.5267665576944434e-01 5.1297384600947266e-02 7.3798385675590382e-05  -3.9724840522738218e-02 1.2574134751883903e-01 -2.9756954258329058e-03  -6.3981021093535859e-02 1.2302922738784181e-01 -5.0824681102306698e-03  -4.3737031702647595e-02 1.1452654197499514e-01 -6.2281284674048348e-03  -5.9600834798790199e-02 1.0691663448672521e-01 -6.0333661383030601e-03  -8.0855003889756055e-02 1.0562002641416417e-01 4.8045972622591604e-03  -5.8687235377174192e-02 1.0775346279610791e-01 6.3483978054521787e-04  -7.4665538181399232e-02 9.7217909790205961e-02 1.1105813197693551e-03  -6.9811135683033126e-02 1.2376575439840752e-01 6.3635826159869535e-04  -1.0794392840074386e-01 5.6826085126893557e-02 8.9576841876907944e-04  -1.2360550511690349e-01 6.5246801611135399e-02 -5.0126955656505630e-03  -1.0638540401164338e-01 7.8852598502274732e-02 -2.9327668648327079e-03  -5.5275833730787205e-02 9.6109478448799746e-02 1.5413644478435779e-03  -5.6968698287319049e-02 8.6297247145296935e-02 3.8401820652228172e-04  -5.2759023233954074e-02 9.9044156465966010e-02 -3.8882441096138014e-03  -4.8137183214772915e-02 9.1555798685039463e-02 -2.4057259262005116e-04  -1.4963215527293217e-01 6.0318554814846721e-02 -8.8184540840115216e-03  -6.4841184856725895e-02 8.0342681710711392e-02 4.8280055019557441e-03  -6.8458991718009871e-02 7.7649399720312581e-02 1.2774224416702652e-02  -7.1702221713727407e-02 7.4106164670542082e-02 7.0637036829920893e-03  -4.8406423529804912e-02 9.1356013115243412e-02 4.8554102417943754e-03  -6.6228136807593735e-02 9.1950700487249210e-02 -3.6574072322260241e-03  -9.7975876150081728e-02 7.2429238301927254e-02 1.0290663559044321e-03  -8.4862922994439080e-02 8.3341132211123117e-02 -5.6231293236192164e-04  -8.5548248644320327e-02 6.6867573315597922e-02 -6.8364445919632116e-03  -8.3702324370508452e-02 6.0511696586335387e-02 -5.2944711081823297e-03  -9.3101950192076149e-02 6.4475829598328357e-02 -3.5756763093430740e-03  -8.8839312747054117e-02 5.2642194317074335e-02 -6.0894952963131159e-03  -1.0581130436886181e-01 5.9497491862296255e-02 6.9327749572242747e-03  -9.9847082733482972e-02 6.9364157734197671e-02 1.2440920785108922e-02  -1.0435133797759880e-01 4.7297055304174968e-02 1.2417449513837062e-02  -1.1858773758414384e-01 3.9220239870477874e-02 1.4595200673384475e-03  -9.8234774601627953e-02 5.0460878146937636e-02 1.7308142921326614e-03  -9.0611541732451298e-02 6.0317815916506846e-02 5.8928303078454745e-04  -4.3081255799709131e-02 1.0014787366487203e-01 2.2597690864342711e-05  -3.1712289874827465e-02 9.8547445295014580e-02 -5.9435463116484582e-04  -6.7134846841358051e-02 1.0161265294599620e-01 1.2164010626589462e-02  -9.1026082754989857e-02 7.9034580186162898e-02 -5.9762682095008237e-03  -8.4130032855948875e-02 1.1833431504503394e-01 7.3841053519945249e-03  -8.9403477513552890e-02 5.1288074352170865e-02 5.1402648714746358e-03  -9.3627728035352034e-02 4.3109811314737539e-02 7.2526333034655206e-03  -7.7719868616512658e-02 6.8181186429190202e-02 -7.3374040974932830e-05  -7.7618186652792062e-02 6.8506792303152833e-02 -5.9122561323060163e-03  -8.1230641172773344e-02 6.4712673703370610e-02 -1.2232398582196592e-02  -9.4087605497119420e-02 1.3108426516583135e-01 1.1163630210934406e-02  -1.1744480935438925e-01 1.1181902827797190e-01 1.2177348485029018e-02  -1.0028640656359432e-01 9.7089442568494708e-02 7.9048814038905693e-03  -6.3640778431341929e-02 8.6888904887363283e-02 2.4115449925412669e-03  -7.4710119090792226e-02 7.1965484678299635e-02 -1.2020267547788847e-02  -8.9385117723957241e-02 1.0335573948410744e-01 -1.0257638783230130e-02  -9.6612847615033984e-02 5.0271576752770865e-02 -6.7164108117291777e-03  -9.1559720247310433e-02 4.8364378578054222e-02 -1.2082655611589960e-02  -8.6640310623139344e-02 5.6836361991526328e-02 -1.1871260083868213e-02  -6.9106656517683093e-02 9.1136740564097582e-02 4.6843920931550704e-03  -6.1479359023023712e-02 9.3109812769338607e-02 1.2550351985688123e-02  -6.7836486690234829e-02 8.7801313710338211e-02 -1.1644960386624182e-02  -7.7468570839334006e-02 7.9754764936496428e-02 -5.2750990123828986e-03  -5.6198070632745040e-02 8.6998856698502880e-02 -5.2973668528347789e-03  -4.7952537617513620e-02 9.1905965885747856e-02 -6.3192462148412678e-03  -6.7416595875057508e-02 1.1628400453671921e-01 -1.0505919615249722e-02  -9.4226215708117705e-02 1.3207703005335589e-01 -9.5379687188299044e-03  -6.1109531600884046e-02 8.9545856190961004e-02 -7.0809263767969959e-03  -5.2596261048846356e-02 9.7963160105480174e-02 -1.1763156965349689e-02  -1.0018121734530254e-01 4.2014281627632065e-02 8.0840929484652050e-03  -7.3918042734440720e-02 1.0104679759033124e-01 -1.0879503539791323e-02  -2.5711168818620907e-02 1.1566303609250264e-01 2.0119026496304227e-03  -2.7151705669119539e-02 1.0753387397368371e-01 6.4038692913949112e-03  -1.3698512899409632e-01 3.5371775255861868e-02 -6.5450892743078217e-03  -1.2091130484759531e-01 6.2621619567855599e-02 -1.0413285621652347e-02  -1.2794794668804346e-01 3.7911459310711840e-02 -1.0821091472149092e-02  -1.0603410574518986e-01 1.2162583455798846e-01 7.0678191289629509e-03  -1.2050212436487256e-01 7.4356952650091082e-02 7.1820585828138240e-03  -1.4390954880023535e-01 7.3588283854866335e-02 5.2689802976782314e-03  -8.4569900250957841e-02 7.1850284775577714e-02 -1.1652871249253021e-02  -1.0715967265056875e-01 3.7505371044522146e-02 4.9391820307634225e-03  -7.1803340642201077e-02 7.4317901939199377e-02 2.5185951354131622e-03  -8.9007411605302442e-02 6.3889041590644846e-02 -1.1641509713220451e-02  -4.4121993423090033e-02 1.2400946596839935e-01 1.1635435030013996e-02  -1.3503069918875349e-01 8.7080783188821842e-02 1.1766239260193673e-02  -1.0690459541453437e-01 8.4209776631950714e-02 1.2113861856132882e-02  -1.3857374798881827e-01 4.0280728442084850e-02 3.4919186564188352e-03  -2.3602429366101966e-02 1.0999085089736124e-01 1.2354867823805477e-02  -2.6681592265227878e-02 1.0023417492269689e-01 1.2648595626377705e-02  -4.4424182730046197e-02 9.3595755837467487e-02 1.2722497915376890e-02  -1.0450202044685668e-01 4.2509501610240891e-02 -3.9113158133936574e-03  -5.2434111178216336e-02 8.9894573987401583e-02 -1.1918497215832810e-02  -8.4738112009124331e-02 8.7842844242786322e-02 -1.1192777123852660e-02  -4.1805385760680901e-02 1.1452579188741135e-01 5.9242248613480835e-05  -1.5449699894938443e-01 4.5975376207395044e-02 -5.0006354637702590e-03  -8.4338125318312862e-02 7.1315148059749409e-02 4.5533100639359286e-05  -8.9740721911056726e-02 5.0861570973123639e-02 -5.0296716456066608e-05  -9.3288083441229769e-02 4.3917903845186138e-02 -4.1102464789426292e-03  -7.7353308156952280e-02 8.1093404683297732e-02 -1.1531422076247388e-02  -6.8004355331632585e-02 7.8595400976710722e-02 -1.1987847924491231e-02  -1.2802010586228910e-01 9.9117676446583244e-02 -4.6467512598573901e-03  -3.9621060247360167e-02 1.0683149806038794e-01 -3.5956724337338239e-03  -6.8620547820901712e-02 1.4670978292675582e-01 1.1901274994142024e-02  -8.1719762953821565e-02 1.3956957978135837e-01 -3.2716165822144999e-03  -9.5416609060242588e-02 3.8722894125941723e-02 1.2878458652006937e-02  -1.5788187664941941e-01 3.1130671049255081e-02 -9.6090400246748135e-03  -7.5183683838548412e-02 7.0947403171754575e-02 1.2852305228634561e-02  -1.4936852395415123e-01 6.0069359643992105e-02 1.1381545432780473e-02  -6.8476015672544410e-02 1.1730001322322497e-01 1.1669222404895884e-02  -1.1074519978140701e-01 5.0194166716749707e-02 -1.1172475090313189e-02  -8.4059298195094750e-02 5.9582301169606826e-02 6.1841692380731903e-03  -8.8007602459980350e-02 1.0097070525334097e-01 1.1923167786002810e-02  -6.0888389393981834e-02 8.3695081813632805e-02 1.2773722456024303e-02  -4.6384117711629716e-02 1.1340177695149169e-01 -1.1186932956758183e-02  -4.5299946733478647e-02 1.2922743160894748e-01 -1.0454170006683550e-02  -3.9111335028353532e-02 1.5739040460367701e-01 1.0701666691720679e-02  -3.6581163699541591e-02 1.3522596138828177e-01 1.1649085614186382e-02  -1.0118787716727924e-01 4.7018137821240417e-02 -1.1257128524491029e-02  -6.2994385275966819e-02 9.6985694057881433e-02 -1.1323977906723905e-02  -4.2044796764216123e-02 1.0023356428658819e-01 -6.9059350631366480e-03  -4.3648756989369257e-02 9.4492420804634561e-02 -1.2168336670987163e-02  -1.2654653293609511e-01 1.0020055199344191e-01 5.6236768402020210e-03  -4.2574755182415644e-02 1.0374208051605734e-01 -1.1654449562385016e-02  -5.9759537210368453e-02 9.2293582702248078e-02 -1.1701134877246493e-02  -6.0336194613341422e-02 8.4744700234078277e-02 -1.2192299440024472e-02  -3.0432246513974345e-02 9.9263695476367445e-02 -5.2478519451718310e-03  -3.4947210378056488e-02 9.7978152620895639e-02 -1.2019042741212526e-02  -3.9167158367931595e-02 9.5938066302904884e-02 -4.3016074331150315e-03  -8.4050294396793637e-02 5.9899378073444122e-02 4.6662993961704989e-04  -1.0340215379775944e-01 3.7012410543215135e-02 1.2730133845093238e-02  -1.2978886249053945e-01 3.8393137846157943e-02 1.1961522178449469e-02  -1.5437075469941960e-01 4.4893631816006814e-02 6.7276985383564157e-03  -9.3538621866476809e-02 4.3155060863144967e-02 2.7806969540815933e-03  -6.8076538720463972e-02 1.4713275413445040e-01 -9.6383638570236851e-03  -1.1796904180038599e-01 2.7729582637618617e-02 1.2493743214083546e-02  </DataArray> 
</PointData> 
</Piece>
</UnstructuredGrid>
</VTKFile>