<?xml version="1.0"?>
<VTKFile type="UnstructuredGrid"  version="0.1"  >
<UnstructuredGrid>
<Piece  NumberOfPoints="274" NumberOfCells="995">
<Points>
<DataArray  type="Float64"  NumberOfComponents="3"  format="ascii">-0.8262722068337489 1.214214377293678 0.7319552811989505  -0.6062226566438368 1.439697221576838 0.430144653775685  -1.085640909602985 1.676569021482061 0.5128342442179297  -0.8703772905936825 1.791629823007596 0.6925816834223161  1.225257003058708 1.087822772977291 1.802378243505504  1.291716056056339 1.514744667736657 1.566197140660724  1.229206351219692 1.160190834715364 1.468546914215901  0.8002820848895167 1.245517446431679 1.806354342913812  1.025116009025532 1.341367238375896 2.03791273432409  0.937047807243359 1.139143600548469 2.292287176494212  1.026500503865961 1.708180226933143 2.203820081032769  0.724634143467811 1.448197965544568 2.145869248227742  0.3251415674980697 1.44307702781416 2.096353265541737  0.5681290962822957 1.549327866949738 1.773146020401223  0.5558257833500052 1.911322657138745 1.900059277335361  -0.2735891889529415 0.9569729094510142 2.12552337428227  -0.03919175637006414 0.9961399489150803 2.208831768913183  -0.06873693303092365 1.389446822062717 1.983219617280064  -0.4288678167384623 1.239012283384815 2.241953490964321  1.258308491177613 1.542161547685859 2.27170526119972  -0.9694713875451534 1.385937676744171 2.106230155188507  -1.009694780086552 1.717163073440949 2.062825459032976  -1.258981000836231 1.541609633272406 2.455411461786796  -1.009694780086552 1.71716307344095 2.59683869758662  -0.844926995554161 1.068622128813088 1.069123252014927  -0.3414150989220618 0.9363981445992313 1.071005738840007  -0.4922678887532528 1.230649576046017 0.6724026039041537  -0.3788887885544553 1.455913956808009 0.8999474566814727  -0.8110786017792939 1.047269901791205 2.121104941428879  -0.959866315318026 0.9405257741639269 1.626839118754434  -0.892990212372111 1.21769769929962 1.825057446330698  -0.7247392452730292 0.6856215615323663 1.96900354591404  0.703832443164323 1.296774617755608 0  1.085839958626342 1.676462627562471 0  0.815967879555884 1.820712259107823 0  0.7210652289595565 1.382696465015165 0.4268810221756049  0.1442795150810441 1.484939248488856 1.010602050919654  -0.009012304300633239 1.708706554924846 0.7398374173822192  -0.1118209022403694 1.988986602413682 0.9801646178047809  0.182152240719404 1.982059570186894 1.044691886492768  0.8085647595130739 1.466040108342257 1.5481343673394  0.4424771317703592 1.636537897080414 1.145980375529705  0.7610821922140668 1.480496114794606 1.212109319789605  0.7071890786616311 1.865407103486085 1.057788929456574  0.756132811102644 1.850560184566739 1.503152000270716  0.5178791473244835 1.26489927786667 3  0.4029248414127026 1.204631806333226 2.73567576311457  0.5537687920112865 1.351859095829314 2.530044562726093  0.775394094633397 1.277211819456766 3  0.4290099311982717 0.8991175029953397 1.197491932796561  0.5911820470464325 0.802243751827791 0.8786518036551082  0.7016393297798049 1.063836696035372 1.070733255320897  0.7816643063515599 0.6162581739138656 1.201287791390862  1.013770822252929 1.714984383512416 1.793150909366531  0.7348330606125655 1.857021393239568 2.170834804539639  -1.230947643491196 0.8176538316399466 1.805737396756329  -1.332861560589527 1.031877019211556 1.55094688052432  0.04504083786607943 1.649225737844505 2.218881006887865  0.1898814847936827 1.573183929223919 1.712662906107614  1.324835377882232 1.487564342747517 1.991528779165446  1.3230625116969 1.011817659597906 2.172887002434679  -0.3653837498630332 0.9291273338257455 1.55456478137134  -0.03930125034265256 0.996129164700061 1.859726882642217  0.1523760183173296 0.9849922721179493 1.540021591033011  -0.210955085465953 1.473064701073961 1.604276690252083  0.1643047838855171 1.320926202876569 0.2601257099434788  0.05207958592487053 1.496570209466655 0  -0.1302178383729681 1.254910122246268 0.292770397207166  0.1391998973416516 1.661628473974168 0.2874369829148079  0.4902387178597494 0.8663900346840245 1.644223245116999  0.6048500187449869 1.094333828430617 1.416453345737009  0.5143124361856025 1.615035728290868 0.3030368477971916  0.9248198794793943 1.157533796277712 1.31350528724392  1.310285011115728 1.499505520151565 1.221305217044282  1.043351705441751 1.699173072036732 1.471319563029217  0.4671578611291403 1.204306292433994 0.6398323713313319  0.4506392931273455 1.615455817897696 0.7978568622240574  0.3035663841944029 1.468329231260957 0.5178133255738145  -0.6796881143437906 1.523987731700569 2.661181032844699  -1.140708572998613 1.63867330633855 3  -0.8750023968525584 1.789157652207271 3  0.4653676037139801 1.406216133155081 1.432180213150491  0.1365322227412603 1.705542136429821 1.380205762255295  0.3693333200234774 1.963623843004327 1.279756406306504  -1.025539932059421 1.252856230816483 1.479334304136633  -1.4721675795117 1.343596388167719 1.618925523222353  -1.148333263155938 1.632415884839794 1.78015986768522  -1.244442521979935 1.553541054520678 1.478755947660962  1.046236435761914 1.259623450252614 3  0.8742082723200244 1.446804419358319 2.687174279676173  1.155492626478305 1.626540347205291 3  1.392037482153536 1.432413001073002 3  -0.4681260799992067 0.8782094858657317 0.8325819908896523  -0.09708392555109108 0.9904380679290505 0.8772233868214522  -0.2730822081236509 1.405944611692334 0  -0.380664042958306 1.962507864201424 0  -0.6738580304136191 1.875517966433276 0  -0.4012415102259741 1.637630821126016 0.2710145018262761  0.4549035203945458 1.604343132989162 2.724617221798848  0.4637410722358405 1.939256248866168 2.631686396845068  0.3140478354405893 1.969068987966176 3  0.6098018463920098 1.894949197420773 3  0.02676643764601537 1.300197661506557 0.7064266809922422  0.2702183339099075 0.9579954471492393 0.4203232145017637  -0.1950903220161293 0.9807852804032301 0  -0.07086380667432458 1.309039291560229 0  -0.6581426274935399 1.141175892022394 2.668245984588441  -0.7437850672925156 1.310274425777958 2.344038711966598  -1.067661353863925 0.9868268625447008 2.537163485791395  -0.9778930460282533 1.30754977276707 2.675174608316912  0.08130583150362561 1.348055664983449 1.373419031199028  -0.007223157962659155 1.999288581035586 1.542883892344841  0.3333848312727352 1.967164460109957 1.63125333343706  -0.1834299297759022 1.649144526163002 1.221032517683487  0.7561328111026439 1.850560184566739 2.561201759852887  -1.175934197438558 1.609764383466992 1.145300421014613  -1.033643812175094 1.704362049094382 1.368988998214624  1.27376505431592 1.529476674139147 2.564118891466585  0.8918694017944511 1.780142050235693 3  0.1661565775744638 1.551646101203875 2.556887451517214  0.1785856489387258 1.982410848816575 2.485013482829006  0.009516601073950248 1.999062696605036 3  1.266959080528367 1.072837320342046 0.3070083336368682  0.9006441312819163 1.195851894271065 0  1.325509241494877 1.487011317172708 0  1.026740274448011 1.342226116069992 0.2810816446233091  -0.3194953394224398 1.968532455654207 1.537546908821672  -0.2166237417827176 1.97866442367134 1.826102857666231  0.1795243367964527 0.982318396132153 1.268880345408205  -0.5463090841630303 1.617934395573558 1.534150311174274  -0.5416352648314748 1.266153308808087 1.654962000493026  -0.475714278225114 1.461073098013345 1.990623103556109  0.5811491229633505 0.8104775598327704 0.4195582311435302  0.4813410780483055 0.8711459222469204 0.6525577465606014  0.4706916550363877 1.200155881993751 0.3061720388465  0.01090256986352663 1.296448819505796 2.715241883618103  0.1276238778575568 1.637250392049376 3  -0.09711585788368765 1.490793832837871 3  0.3419724544540532 1.453373101437235 3  -0.9738863299386127 1.29796209853297 0.3548698454754697  -0.8565322307174396 0.9851968215745449 0.2806003666290897  -0.5487309629084373 1.168830080656482 0.2795309104015246  0.5274438955070994 1.919932208690407 0  0.6735271539842622 1.875618336700805 0.4401973666696549  0.4647844889462314 1.222718290358298 1.725376484616937  0.2702183339099073 0.9579954471492396 2.365945188904822  0.08031105797774156 1.311169543640173 2.313436608907443  0.5165522821737178 1.172046529814467 2.226237013913654  0.2619811471086827 0.9604941704476454 1.824094099115754  0.4637410722358405 1.939256248866168 2.338340568812943  0.06418241993696404 1.99367858338955 1.85486200412636  1.388409894790153 0.9793438094792545 1.146169918058405  1.12927075251153 1.116891617068138 0.9615898563112137  0.9218510219741471 0.9261978185950753 1.624065965663955  1.017988283394929 1.096890304312389 0.5685089787574747  0.9100980088585815 0.9839223753012754 0.2661356616581632  0.8850474053629072 1.047062943728529 2.678047646755426  0.78166430635156 0.6162581739138655 2.517007383206871  0.6188712620331606 0.7795198003534882 2.306042624597293  1.041119345695563 0.8518276646801668 1.186872341811162  -0.03930125034265274 0.996129164700061 2.568295406843527  -0.3448925070327117 0.9353432843813163 2.366073780949903  -0.2285005142135763 1.469324511627211 2.388520136497989  -0.6162581739138656 0.78166430635156 0.4191414197236378  -0.4864155127577982 0.8684335803860413 0  -0.3448925070327119 0.9353432843813163 0.3369121132772922  -0.5275263661176661 1.919907191504196 0.3753676109091024  -0.5275263661176652 1.919907191504196 0.6776658123553367  -0.2364866174756214 1.668666085867203 2.679620485558821  -0.1428347826811779 1.985932001805516 2.521964616201382  -0.3228874270112512 1.296959932787666 1.282266916427373  -0.1950903220161293 0.9807852804032301 3  -0.3268399160465632 1.2991464862264 2.700131573630263  -0.5519289362489997 1.38314656429069 3  0.6161044964006956 1.506569816507054 3  -0.5183545020952502 1.603496667730219 1.196719723593035  -0.7055764457917805 1.317597013421202 1.301115225193525  0.6539837630963129 1.343736809428488 0.8786087193327419  -0.7376982336589788 1.856152252497978 2.455194588060328  -0.5915000795287085 1.90050097770291 3  -0.4454176205645277 1.9448146071629 2.61157576185748  1.513913159533107 1.29272925173392 1.334115922848251  0.94071604896
[...]
<PointData  Vectors="f_18"> 
<DataArray  type="Float64"  Name="f_18"  NumberOfComponents="3" format="ascii">-1.5221775322847375e-03 2.1811117878426014e-03 1.3184613485181611e-03  -1.1077951804516792e-03 2.5334826024043483e-03 2.0220677570514422e-03  -1.6604824390652809e-03 2.5197241181035639e-03 2.3170520933501774e-03  -1.3142667235398967e-03 2.6512539806385284e-03 1.8383788872623637e-03  2.0291267325020304e-03 1.8537081924754548e-03 -5.9676472271723432e-04  1.8991731898681638e-03 2.2972861346147156e-03 -1.7747714609754112e-04  1.9878992283924144e-03 1.9048582819711801e-03 5.2944057538844240e-05  1.4530602991174317e-03 2.2862825565342091e-03 -5.2327236073200631e-04  1.6987657460632213e-03 2.2308181750969442e-03 -1.0841457246434497e-03  1.7099218776493513e-03 2.1296358830906375e-03 -1.3881428983388345e-03  1.5300210096316411e-03 2.5650368073828296e-03 -1.6272145130301640e-03  1.2143281917079071e-03 2.4402657010757769e-03 -1.2503221440704712e-03  5.7220848807368135e-04 2.6163194150525004e-03 -1.0569001173295991e-03  9.0793260156297713e-04 2.5080725617411220e-03 -5.4636095000484364e-04  8.0973355264465701e-04 2.8017314473345969e-03 -9.1461987729042832e-04  -8.2778367898064191e-04 2.9656319286110464e-03 -7.8846841051075252e-04  -1.4253252123912257e-04 3.0430290615209902e-03 -8.9113951151771327e-04  -1.1002984528537697e-04 2.6380445928587651e-03 -8.0338911256242482e-04  -8.6824704194150891e-04 2.5516430308456005e-03 -1.1244464212979161e-03  1.8897781620848327e-03 2.3518825189306420e-03 -1.7762901423127345e-03  -1.5603044416936541e-03 2.2113923469580894e-03 -1.1952668132234310e-03  -1.4808017878220159e-03 2.5068565735149352e-03 -1.2570088791594030e-03  -1.9094468333364454e-03 2.3765472740924763e-03 -2.1710875242134443e-03  -1.5521484305331826e-03 2.6726175545249138e-03 -2.5899590332009821e-03  -1.6392415001208525e-03 2.0588407225420246e-03 7.2788541310983611e-04  -1.0297840131009617e-03 2.8297543072568817e-03 5.3011625607267919e-04  -1.0425783503321276e-03 2.5115163893651270e-03 1.2770887329129892e-03  -6.9907706269467919e-04 2.5623038486486329e-03 1.0638933614524275e-03  -1.6588075131662959e-03 2.1595043467917256e-03 -9.1263250793751239e-04  -1.9186847505057764e-03 1.8520978452333885e-03 -1.4268192464888147e-04  -1.5753711940229718e-03 2.1365351235230886e-03 -5.6354214777876968e-04  -2.1252699047482801e-03 2.0181881350265860e-03 -6.0000096592829324e-04  1.4654848988493510e-03 2.7987962005966336e-03 2.8117611236153496e-03  1.9368465175061181e-03 3.0705132348380960e-03 3.7175224181726883e-03  1.4698997535031819e-03 3.3446831861054316e-03 3.7178658203332617e-03  1.2861997153870376e-03 2.4904292997749719e-03 1.9738606446290594e-03  1.9402425669549220e-04 2.6559783141570947e-03 8.2811979268902899e-04  -2.4584535022367955e-05 2.7036213814226116e-03 1.5062103910512600e-03  -1.7684392511066959e-04 2.8980461420411341e-03 1.1146802614592044e-03  2.3830090870955977e-04 2.9066594256717793e-03 9.8088391264252589e-04  1.2614110075963769e-03 2.3270480093142885e-03 -1.1679706359557810e-04  6.8419586526316338e-04 2.5201820503966067e-03 6.6259957124702390e-04  1.1996519515280093e-03 2.3478542104404345e-03 5.2393275965939004e-04  9.8245442545144101e-04 2.6467173121849027e-03 9.3076319482296075e-04  1.0356620610779978e-03 2.6433137186617373e-03 -5.3645616838764568e-05  1.2333519031783491e-03 3.0122994782405626e-03 -2.6087011136020138e-03  9.4311151275926512e-04 2.8360537030602648e-03 -1.8796168911372146e-03  1.0519103273805876e-03 2.6175097229590746e-03 -1.8475823901145157e-03  1.6793123455139075e-03 2.8339468129157143e-03 -2.8860259939710539e-03  1.2411851409988577e-03 2.7119107085280293e-03 4.6176534633143244e-04  1.7416180025412533e-03 2.4687873518773580e-03 7.8300187024256645e-04  1.4862531370102218e-03 2.3142045107149506e-03 6.1686489219409720e-04  2.3611653979082859e-03 1.9061915736057497e-03 3.4475428629858338e-04  1.4832654385431082e-03 2.5230772128180686e-03 -6.7358794776663537e-04  1.0648119634449624e-03 2.7836967223623921e-03 -1.5696305269495316e-03  -2.1679413757055089e-03 1.4404157745548513e-03 -4.5872041961443643e-04  -2.0907494360213256e-03 1.5878947912004561e-03 -6.5671682303569494e-05  7.4838455527641734e-05 2.6809444465716241e-03 -1.4210311639735701e-03  3.1785281816026667e-04 2.5901667955809549e-03 -4.2720362198732327e-04  1.9719298311117071e-03 2.2571478090019493e-03 -1.1366297738032974e-03  2.1512658950003658e-03 1.7011380987373044e-03 -1.3360725113609161e-03  -1.0873851585573434e-03 2.7771909446399580e-03 -2.4083917836400229e-05  -1.2013354987011726e-04 2.9640867682957013e-03 -4.0400788137121560e-04  4.0395748215868942e-04 2.9101675358003225e-03 3.1190562718627491e-05  -3.8770603407731761e-04 2.6792612067923502e-03 -1.3438496566453031e-04  3.0075299473977015e-04 2.8099641349203668e-03 1.9814843862367396e-03  7.9408394799112560e-05 3.1552086650342868e-03 2.8610864821244615e-03  -3.5097148269076257e-04 2.8237336622516200e-03 1.7817278768141401e-03  1.8877862795428925e-04 2.8963929896146218e-03 2.4342276250451716e-03  1.4797187702728961e-03 2.6387370211642569e-03 -2.2290798175208051e-04  1.3205241451750599e-03 2.3627664934578519e-03 1.1332864350614325e-04  8.6180255156231541e-04 2.8015397862669088e-03 2.4530193778770403e-03  1.7132238026684719e-03 2.1598205793602514e-03 2.8202383377458974e-04  1.8512384278323770e-03 2.1959715581668067e-03 5.7488949742284952e-04  1.4781458346447267e-03 2.4679369610216247e-03 2.9222325945141475e-05  9.1246930148798752e-04 2.5366656498617543e-03 1.2951101053825052e-03  6.9331639203421024e-04 2.5566192050340874e-03 1.3639391984969689e-03  5.1540800831944493e-04 2.6663012153026497e-03 1.7121221048755754e-03  -1.1460349370087048e-03 2.6323068445370593e-03 -2.3401372214308875e-03  -2.0341749392089547e-03 3.0220085840075074e-03 -3.7702787558133778e-03  -1.5891710353166536e-03 3.3063490263335175e-03 -3.7650012837777435e-03  8.3261637527308409e-04 2.5111991947182047e-03 1.0110400523637298e-04  1.9934802082281278e-04 2.6385445863925574e-03 2.0024062994447066e-04  5.0892786025195566e-04 2.7655887514266152e-03 4.5023988252311823e-04  -1.6843050336175795e-03 1.9933235923488475e-03 3.0138408767433071e-05  -2.0920166456493000e-03 1.9415512207333954e-03 -2.4310857622946363e-04  -1.6313492189380188e-03 2.3192453114347592e-03 -5.9732702590391327e-04  -1.7625886528124654e-03 2.2006933529977457e-03 4.7037893575009624e-05  2.0872318995651283e-03 2.5867406251334694e-03 -3.1918887629278601e-03  1.5361276286074872e-03 2.5791876470845658e-03 -2.4973809809758362e-03  2.1203866889056662e-03 3.0383867878922984e-03 -3.8378177937973884e-03  2.5442030616573881e-03 2.6511805460999426e-03 -3.7845200103574974e-03  -1.4371659712017438e-03 2.6646741298266708e-03 8.5503363876828582e-04  -3.3603331837183927e-04 3.0128213787738566e-03 7.6465250133682361e-04  -6.3720578185729663e-04 3.0703767400718064e-03 2.7461493979458137e-03  -7.3135611223160060e-04 3.4765523121451148e-03 3.7462669088874608e-03  -1.2907244783541523e-03 3.4019609564518122e-03 3.7746547305136939e-03  -7.3033061310326256e-04 2.8307657775320356e-03 2.5482567269727143e-03  8.3181491358620067e-04 2.8925023283398062e-03 -2.5614538792437659e-03  7.5677083510574436e-04 3.1497863360309629e-03 -2.7288988565428588e-03  5.8347555733488014e-04 3.7192820000013622e-03 -3.8356231806543377e-03  1.1115903816409257e-03 3.5829764234423822e-03 -3.8289617899188323e-03  8.9231794189051827e-06 2.7121849379875139e-03 1.1910182969562854e-03  8.0610902690738881e-04 2.9542453820878890e-03 1.2532706305578177e-03  -7.0618268852924606e-04 3.3292649489555372e-03 1.7690112434653933e-03  -2.1143956335279346e-04 3.1899271541989257e-03 2.4275267934717043e-03  -1.3824321286863687e-03 2.4670864915822995e-03 -1.8018565779369259e-03  -1.3174828614197424e-03 2.3420509101756528e-03 -1.5105597670939811e-03  -1.9955915022666711e-03 1.8991977752388710e-03 -1.7678153476782120e-03  -1.6719520627221502e-03 2.3122411359364041e-03 -2.3347810040860806e-03  1.6199345158997739e-04 2.6393874102216774e-03 2.0337840805494955e-04  -2.4927420449568476e-05 2.8564075409934328e-03 -7.7005600695522036e-05  4.6218819670193207e-04 2.7520022923540719e-03 -3.0861795197854457e-04  -3.1323760129042621e-04 2.6531547116687131e-03 5.1349423457719347e-04  1.1993317361916329e-03 2.9255455989609692e-03 -2.5305055489073386e-03  -1.6721025856838510e-03 2.2650243916155803e-03 7.9403018576465684e-04  -1.4871893416565059e-03 2.4579425954188404e-03 2.9042184900339039e-04  2.0129585482033781e-03 2.4446198865942549e-03 -2.5408347423731387e-03  1.6734447576201446e-03 3.3666386906023339e-03 -3.8211350120541561e-03  3.1466035074096044e-04 2.7839112754977943e-03 -2.0328218852087411e-03  2.8418996245894692e-04 3.0617376122963991e-03 -2.3457810808793929e-03  4.9100082296426842e-05 3.7112147918423326e-03 -3.8204793517852610e-03  2.2111667678557847e-03 1.9082519804574966e-03 2.4093225384374290e-03  1.8744828755935736e-03 2.5270667414680481e-03 2.8438170423403038e-03  2.3969785361933433e-03 2.7373192228522204e-03 3.7140004845792880e-03  1.7588487342692887e-03 2.3218181310451706e-03 2.4707715930520928e-03  -4.4690832726089350e-04 2.8365918834484579e-03 -7.1663996584062203e-05  -3.1432377401162691e-04 2.8764077848602593e-03 -7.2640611148239143e-04  4.2950807630533997e-04 2.9285416892775714e-03 3.2788325705355114e-04  -8.4642457963631369e-04 2.5072364739750492e-03 -9.3841016462870358e-05  -1.0671215971689749e-03 2.4119191155254028e-03 -2.5290269611489587e-04  -8.2031490275504449e-04 2.4968702424797403e-03 -9.0179779053181695e-04  1.8168243718979669e-03 2.5683048603859200e-03 1.2772856488462402e-03  1.4269900498194473e-03 2.6398281319808606e-03 1.0286433544435217e-03  9.7849148485103384e-04 2.6884800645450989e-03 1.8159984448841650e-03  5.1506933748929859e-05 2.8832313880538946e-03 -1.8962919366356317e-03  2.8959644759714000e-04 3.3204746706010629e-03 -3.1795187190997018e-03  -1.6714872134338749e-04 3.2305393169238588e-03 -2.8395754819855786e-03  7.6192195137976928e-04 3.2664952596985174e-03 -2.8893850887364292e-03  -1.7230771854360454e-03 2.2442649080989825e-03 2.2641602100781813e-03  -1.9012556335477114e-03 2.1470533320086913e-03 1.9135575154342159e-03  -1.2513510382801021e-03 2.5884650672237221e-03 1.8679465971323922e-03  9.4271657381628162e-04 3.4919289384253024e-03 3.6820118475123322e-03  1.0231172934212730e-03 2.9333701012467339e-03 2.4332883446484457e-03  9.8776037396469695e-04 2.5499770849014354e-03 -3.7420680942564102e-04  8.5418385859335245e-04 2.9353657187031557e-03 -1.1466612428761927e-03  1.6858559079613791e-04 2.6989965001026441e-03 -1.2773139159132411e-03  1.1267808354655207e-03 2.5680917214768750e-03 -1.1199663520795270e-03  7.5591058321217836e-04 2.9314262354001642e-03 -4.0344004627509663e-04  7.2739934404879184e-04 2.9333535271802813e-03 -1.9482432312098682e-03  1.0317491163956826e-04 2.8447610164713337e-03 -7.8454159817067698e-04  2.1227850419580970e-03 1.5576016125427087e-03 6.5169765511936784e-04  1.9039809817136969e-03 1.8873827383783560e-03 9.3955396504739972e-04  1.9789243032441719e-03 2.0152364096515749e-03 -2.1628801876044323e-04  1.7769298605155737e-03 2.0171494412704115e-03 1.5993901676763873e-03  1.8810936331546779e-03 2.0972498442271047e-03 1.9616911646149686e-03  1.7926244832425454e-03 2.2011758358769589e-03 -1.9400894400697307e-03  2.3841934124840046e-03 1.9635713190490059e-03 -1.2542766901896399e-03  1.9340737504719679e-03 2.4949305582051052e-03 -1.0312134769563752e-03  2.0396791564879909e-03 1.7408358906170777e-03 4.4715560011478818e-04  -1.1626857865668209e-04 3.1331940039423089e-03 -1.2882166046675608e-03  -9.8615179471562642e-04 2.8436737555844749e-03 -1.0581048477902356e-03  -3.9453897381357383e-04 2.6698969287061694e-03 -1.5782419391235497e-03  -1.9717281321261957e-03 2.4058689366514207e-03 1.3272917977449543e-03  -1.7935311863538613e-03 3.0937824441285410e-03 1.7312211145179689e-03  -1.1345154075591897e-03 2.9601732499692354e-03 1.3899270814526816e-03  -8.6038163795244154e-04 3.0076899030379730e-03 2.6363871987043607e-03  -7.9225607382573532e-04 2.8278933042857027e-03 1.8801462490279437e-03  -3.7356778565623858e-04 2.8574413852886765e-03 -2.4455963204727594e-03  -2.2805341018056601e-04 3.0797331462529970e-03 -2.4471015091724006e-03  -6.2187157676701769e-04 2.5635621445960939e-03 3.5611157974214681e-04  -6.2911015200502218e-04 3.3445602524600129e-03 -1.8116953066989760e-03  -6.5894362805795563e-04 2.7313956199073418e-03 -1.9082606835519138e-03  -1.1619094201536645e-03 2.9997502009635555e-03 -2.8286003260439246e-03  1.2647904680314821e-03 3.1189599917464447e-03 -3.1894511887325442e-03  -8.3224366433537911e-04 2.5566924014493514e-03 5.9731035495934120e-04  -1.2486357036820578e-03 2.3042307031554618e-03 3.7476976544193889e-04  1.1100251153264614e-03 2.3803826407299980e-03 1.0463767069219126e-03  -1.1178883889913886e-03 2.7678605157040953e-03 -2.2498622172097654e-03  -1.0716118391071411e-03 3.4953578723138927e-03 -3.7538198852519185e-03  -6.9374073814683986e-04 3.0333531738380212e-03 -2.6422231771111517e-03  2.1793470066791797e-03 1.9091823128803880e-03 3.1611590412286138e-04  1.9864341048779050e-03 1.8566871125825512e-03 9.3532677030992424e-04  -1.7396947454553344e-03 2.2970436751136654e-03 1.7735528348317720e-04  -2.1214719837762573e-03 2.2215374479840518e-03 -2.3588704329563208e-04  -1.2648506313224276e-03 2.5934539830072324e-03 -1.8613496832586837e-04  -7.4706278378543483e-04 2.7308218111376133e-03 3.8922310312317510e-04  2.2467123887537073e-03 2.0300392963844252e-03 -1.9782305745038526e-03  -3.6337577412803444e-04 2.7019670469769675e-03 1.8766181698977986e-03  -3.8596855075661381e-04 2.9815137281203928e-03 2.2298089005241290e-03  8.3808409173587693e-05 3.0294767666384221e-03 2.2938138218923758e-03  3.9067968595376184e-04 3.5225175067077944e-03 1.7030686243238082e-03  -2.3044680120753347e-03 1.6198351686071363e-03 -8.0379937072436061e-04  -1.9937636843113714e-03 2.0053681736030356e-03 -9.7991006964912725e-04  1.0607189111068438e-03 3.0062379613395454e-03 2.8422478280717726e-03  5.6387136120662935e-04 3.0854400970078033e-03 2.8716120367863092e-03  1.4585002690253935e-03 2.7576929942978120e-03 2.6333724021917132e-03  1.8239923875224982e-03 2.4596903402759329e-03 2.4372791112511061e-03  -1.3044299960830636e-03 2.6518123405308630e-03 -5.2975494740520302e-04  8.7614899295543293e-04 3.1758166734726346e-03 -1.4031142323887651e-03  -1.8712266100185861e-03 2.3699985017072698e-03 5.6821726100434518e-04  -3.2084409076623202e-04 2.9864994564027503e-03 3.2896768342753396e-04  -3.5852681816764498e-04 2.6561032768359022e-03 -9.7011150580491397e-04  -6.9595922477205102e-04 2.7818193294417109e-03 -6.2476651654599306e-04  -2.1453703831196590e-03 2.0008868565087701e-03 -1.7074029316724128e-03  -1.9316796468528458e-03 1.8216118415489606e-03 -1.1498184924054410e-03  -1.8474086668139090e-03 2.2380949662467128e-03 -1.4859970864657273e-03  1.5243781004043149e-03 3.2748458999534817e-03 -1.7224322658806531e-03  1.6973770665724077e-03 2.6464865433193604e-03 2.3903290769854272e-03  -1.2054138949031256e-03 2.3749828144716211e-03 1.0204594785561949e-03  -1.3113336673863242e-03 2.5279819264725791e-03 1.1282005066465266e-03  8.0301605929363731e-04 3.0830702228550528e-03 2.4118564343851936e-03  7.6549078295290029e-04 2.9214690812434494e-03 9.0558266107326855e-04  2.2860196839570844e-03 1.8955897889917192e-03 -2.5045059095730824e-03  1.5247924475007193e-03 2.4599961556594318e-03 7.2561500039532135e-04  7.8699481798080782e-04 2.4905556949730311e-03 5.6962675264488364e-04  -6.5641103278172121e-04 2.8471750748482274e-03 -1.7587214968375568e-03  -2.4603244098813618e-03 2.6833613761432420e-03 -3.7269409999221227e-03  -2.0183602505210200e-03 2.5135910603164492e-03 -2.8246708879914512e-03  2.2380388552698002e-03 2.1686988228266655e-03 2.5276190353547084e-03  1.4555087581504577e-03 2.7180980109335292e-03 -6.7332460928208170e-04  5.6060403691694089e-04 3.0839482464726405e-03 2.5931796997417395e-03  9.8239976670414409e-04 2.7468505726938588e-03 1.6520439745492744e-03  2.1461867174948721e-03 1.9985878149608883e-03 1.7980382617767809e-03  -1.0795258655577264e-03 2.9207409102531318e-03 1.1032928104623969e-03  1.4856143120175972e-03 2.2989053985239408e-03 1.5764478793794229e-03  -2.3735529299691743e-03 2.2155950675870587e-03 -3.1243140209682983e-03  1.3682599471787655e-03 2.6128716720832876e-03 1.8734725820889952e-03  -8.8827199957121469e-04 2.7865451271857525e-03 1.0984564003176786e-03  -1.0523161149186353e-03 2.9367329351709030e-03 -1.3584631594186619e-03  -1.2933293609920155e-03 2.8148125937699840e-03 2.6133094962107347e-03  -2.2552686842728228e-03 1.8772434020187972e-03 -2.4836476369471390e-03  2.3416367805445828e-03 1.6304439669835903e-03 1.1442841102197909e-03  2.0838716095334798e-03 2.0601531663161309e-03 1.1366756202394991e-03  3.1235857101823481e-04 2.9099466350404031e-03 -1.4719774454971133e-03  -1.9547936085314863e-03 1.7622543027334299e-03 1.0886327075522648e-03  -1.9180367022041951e-03 2.1455388931424530e-03 1.4473245581219862e-03  -1.8684914545889081e-03 2.5543350929786955e-03 -2.7371656406587710e-03  -1.8773344332329549e-04 2.8639480506897279e-03 -1.3344915491371586e-03  1.9784288499166288e-03 1.9552281393526742e-03 -7.4360452902061229e-04  1.7202565468292779e-03 2.6241242655221995e-03 -1.3501896703986770e-03  5.1592199014606726e-04 2.8204246336629214e-03 1.4817351086783435e-03  3.7340100470960433e-04 3.5721648062939397e-03 3.7130825701738686e-03  -1.7504886204140527e-04 3.6026397314155786e-03 3.7107703364446694e-03  -2.6314562227331144e-03 1.8066034687988521e-03 -2.8351033213378988e-03  -1.7848859091252966e-04 3.0652415454636545e-03 1.2036557204005236e-03  2.3498827793735359e-03 2.5923149381998287e-03 -1.7691854865378627e-03  2.3699139183081170e-03 2.2111092842853073e-03 -2.8621797864565187e-03  -1.6072464104225929e-03 2.4025165660366255e-03 1.5766975497721796e-03  -1.8377483280058945e-03 2.4453133100599510e-03 -1.2999300778226814e-03  -1.8328273416297362e-03 2.4604429398867684e-03 -9.4412819754264199e-04  -1.3534118084243454e-03 2.8958859090151517e-03 2.8459464636003766e-03  2.5884136733785022e-03 1.8379010191169037e-03 2.8173266847395509e-03  -6.6220829320236664e-04 3.2025885453803990e-03 -3.1198538871555943e-03  -8.5405165401807644e-04 2.5663058950888907e-03 -1.6353879532953288e-03  -1.0249190960749304e-03 2.6878131133989420e-03 -1.2342546147935114e-03  -1.0516225112025901e-03 3.0125258406015075e-03 2.4783698613930517e-03  -1.9355516084080327e-03 1.9818440562736910e-03 1.8153616433032268e-03  2.2966927325565548e-03 1.8997571415954176e-03 1.0980734911107785e-03  2.3700778092524835e-03 2.1282871903675741e-03 -2.7163378125719261e-03  -2.1466294304661026e-03 1.5832037106567700e-03 -1.1374390879755438e-03  1.4068933307488309e-03 3.0927664884499466e-03 1.7245461455142365e-03  -1.6354364650385588e-03 2.8292889499257818e-03 -3.1197783602128315e-03  -1.6547027049701865e-03 3.0259925162155576e-03 -1.7664246312728391e-03  -5.1175588302468410e-04 3.5980399222622387e-03 -3.8093848900985902e-03  -1.7963212814711979e-03 2.6772328396916572e-03 2.5750395789632644e-03  -1.7925837232231638e-03 3.2035838627983470e-03 3.7782201874848554e-03  -2.1364247322659437e-03 1.8897105804715911e-03 5.2159177366494630e-04  4.5416957838575615e-04 3.4883428473528738e-03 -1.8043799930237943e-03  1.7833279949756194e-03 2.3404002058655142e-03 1.5537949345585788e-03  2.3148321815964269e-03 2.5198517060885418e-03 1.7849236241696167e-03  -2.3280437891938228e-03 2.1191904640475820e-03 -2.6150517186868971e-03  -2.5552726778910674e-03 2.4386062097588573e-03 -1.6494360301038472e-03  -1.2343556707359845e-03 2.5598776963045734e-03 -7.9343393998037377e-04  </DataArray> 
</PointData> 
</Piece>
</UnstructuredGrid>
</VTKFile>