<?xml version="1.0"?>
<VTKFile type="UnstructuredGrid"  version="0.1"  >
<UnstructuredGrid>
<Piece  NumberOfPoints="270" NumberOfCells="967">
<Points>
<DataArray  type="Float64"  NumberOfComponents="3"  format="ascii">-1.467388403511188 -1.349419830973749 1.854699578985386  -1.691847127104035 -1.057057584402842 1.792481564850882  -1.589966200280415 -1.200058353451638 2.140554217345306  -1.217866055289757 -1.018367432924538 2.006040510804831  -1.825220060093612 -0.8075343770849391 3  -1.50185727969032 -0.9077313623873615 2.669221514509792  -1.753095244320935 -0.9424704166201683 2.487402243689921  -1.884027970933281 -0.6458043052210252 2.465159781195152  -1.643650479804342 -0.2510722380505768 0.8627116672388495  -1.946726160601798 -0.4391160733837046 0.8111792958218693  -1.829876992465486 -0.7988218694145495 1.130912378998781  -1.964638033666885 -0.3590360694210094 1.131809366286952  -1.135021910619427 -1.16626625365506 3  -1.215713265800185 -0.9538308876182483 2.553540915053693  -1.12411020791712 -1.278183909038757 2.663712644079244  -1.493077796739337 -1.318117214755033 3  -1.481565705491017 0.68148072401284 3  -1.248180643451476 0.8184088958206328 3  -1.321792150157253 1.072788000801277 2.704729680744416  -1.744079642349356 0.9593374215620627 3  -1.019261186056348 -0.8585171825553823 1.460518224155073  -1.205148256874422 -0.3774773616642302 1.56089248708819  -0.7951296159210844 -0.5998506467302667 1.75433246864053  -0.9179380497992715 -0.3937991646901919 1.364903497849802  -1.002683651764804 1.113111278796196 0  -0.9738863299386127 1.29796209853297 0.3548698454754697  -1.438479480639637 1.384645455413685 0  -1.345495349846485 1.110404825705179 0.2846011875062693  -1.507577376660981 0.8231364920143988 2.048252101852508  -1.218231011818699 0.5181979106001584 2.02333925239462  -1.367558477847229 0.6445551758769376 2.337856785046428  -1.638966401215254 0.4151887879065263 2.165380235642512  -1.624080463099287 -0.1727621270770202 0.5029056747682774  -1.98226447380557 -0.1800718193659471 0.3554316398759313  -1.940969068520443 -0.4580946625441093 0.486839458939381  -1.982264473805573 -0.1800718193659474 0.6182472780028307  -1.230947643491196 0.8176538316399466 1.805737396756329  -1.458253475485442 0.7179109713450691 1.446858482212952  -1.332861560589527 1.031877019211556 1.55094688052432  -1.102503165573828 0.9305784620941925 1.310385370874145  -0.8314696123025459 0.5555702330196011 2.237427138497466  -1.226372019819206 0.3270480739075828 2.370012777508555  -0.965058522091939 0.246934496227205 2.15304399136757  -1.136987574194024 -0.6174439811883486 1.914508136383919  -1.31118241156544 -0.7076136899520298 1.591462913785664  -1.508823376803995 -0.6604528802020468 1.900797887321078  -0.959866315318026 0.9405257741639269 1.626839118754434  -0.8820462338257501 0.460948029436811 1.506002633699789  -0.9128204895243113 0.4033734465540432 1.848051248605139  -1.472188914050033 0.3488894112955785 1.813515171551642  -1.25543923261207 0.4266477155525202 1.530718952541371  -1.51628174194805 0.2500805710234424 2.548357219803956  -1.985856966579941 0.1435966281114978 2.320606943969726  -1.718207515630612 0.1656325407329907 2.730245358308145  -1.979306087000891 0.2101088246663099 2.626138783003607  -1.629173242682837 -0.4396626659265072 2.682257104076729  -1.22247303577894 0.3326178634798861 0.9654715603529608  -1.518961711203538 0.07336982528669388 0.767522402488244  -0.9682729950644814 0.23633779896216 0.705460381041467  -0.9988204316776866 -0.01197635816027369 0.9202779528728253  -1.853357911672155 -0.7469099408469142 0.7649736036555974  -1.420642843664937 -0.4846101958058707 0.5578312570836884  -1.197231946569764 -0.8935000884181146 3  -1.026530777987678 -0.7845869878285077 2.750527785280121  -0.676799471553154 -0.7319793474097507 3  -0.8599070038466563 -1.217092010338265 3  -0.6063260378053834 0.7898153998034148 1.360921506343469  -0.921697750839283 -1.168620002219665 2.287594318469468  -1.40848200968545 -1.418917326102362 2.197918156878704  -1.188907895849445 -1.599117144342569 2.304079793180102  -1.391863014225371 -1.432556183201322 2.487165755782071  -1.26350801991714 -0.4011185096612048 2.684939077533538  -1.339611930956236 -0.6653484133795875 2.229914491760713  -1.624663411647594 -0.483272928112338 2.303499260371789  -1.201893715091328 -0.3615169074776507 2.325028010528075  -1.853357911672155 -0.7469099408469138 1.496851154341965  -1.264591130544536 1.044008448835518 0  -1.149563912351546 0.9506533662689182 0.4520590941616618  -1.909045548548626 0.5633324043654051 2.412625223397536  -1.584587574927397 0.5250362983745115 2.724163446472293  -1.576745284602963 -0.4950996627568143 1.416069836141637  -1.950962252746328 -0.4251515490508395 1.462938981298615  -1.169289290396311 0.6178694334978951 0.5466151963945229  -0.9529143709840853 0.8722663860045278 0.7494782604831286  -1.310453516629691 0.6951426320007211 0.8534972697453511  -0.8163371733870979 0.5740091631888196 0.9096750751367708  -1.672031258210054 1.094130467568752 2.235026396344403  -1.823856666218048 0.8100851076195585 2.602030043929778  -1.682973576838292 1.073658829295447 0.6882383971439707  -1.196918151989004 1.252735286126914 0.6180316810739506  -1.183147165165283 1.093160462193829 0.9268828513999143  -1.460442964317437 0.4468419858689834 0.4688061786729282  -1.346501354169998 0.04122682333998573 0.4612535976434082  -1.644974219726995 0.1468516289030477 0.3052610429514422  -1.248556068119212 0.3362010128583522 0.2497271173000339  -0.9273729073291088 -0.3711673189324999 2.536857347675441  -0.8314696123025457 0.5555702330196015 0.592131870607596  -0.9579954471492395 0.2702183339099079 0.3776095963251764  -1.672031258210054 1.094130467568752 1.503148845658035  -1.846612959781425 0.76751107682243 1.151675842041366  -1.416794453136306 0.8959934799664772 1.134827001072054  -1.632606826771926 1.148100599738452 0  -1.53554315370578 1.266373027576068 0.512597756310079  -1.844164754596701 -0.772091346568109 2.010603315858925  -1.706347537702445 -0.04209313724448424 2.277841693175232  -1.993403226347628 -0.06697816690098257 2.551729856391235  -1.405602299093617 -0.4281699265829389 1.080392801027884  -0.9372154852963699 -0.3387206877374102 0.7761614215651188  -1.269246140500716 -0.0930329356625437 1.160250501970419  -1.072417303205681 0.7889984600428528 2.264878008245959  -1.207345100161593 0.5453646283348765 2.668306038957506  -1.47674118856428 -0.1600094556322346 1.571512162555031  -1.638711807804228 -0.06826526146068315 1.173240500731697  -0.9884711682419383 0.1170541932096765 3  -0.9053975484695388 0.4172607924959917 3  -1.425722034133373 0.4167178191580928 3  -1.467499692352606 0.3281647548731498 1.250840500992602  -1.516372324331108 0.7485961155389076 0.3164509087323885  -1.281405002593622 0.7703394935226551 0  -1.98226447380557 0.180071819365941 1.060137157110759  -1.991574622675041 0.08554429156020171 1.519340412504626  -1.559711166137235 -0.3106849806081239 2.010557024887333  -1.212849458285667 0.6015237920645535 1.207583937569291  -1.4721675795117 1.343596388167719 1.618925523222353  -1.638874003421083 1.140464022895973 1.869087621001219  -0.6162581739138656 0.78166430635156 0.4191414197236378  -0.6675264527648972 0.7395895172562288 0.8100690993224364  -1.047573360754929 0.7503466696464647 0.2463986470037509  -1.482021479503497 -0.2124598886321394 2.465159781195152  -1.963461059963792 -0.3709860839702404 2.619478339133881  -1.550049039632537 -0.6496605292722291 0.2853683968296907  -1.784649851221481 -0.8834358993235059 0  -1.63260682677192 -1.14810059973846 0  -1.625683641873808 -1.156536524945106 0.3576525378457722  -1.497041613195321 -0.1322815388834662 0  -1.97000629136114 -0.3045312343666396 0  -1.897725087561841 -0.6006509629603602 0  -1.497195668686971 -0.7760486313250851 0.9253912365542269  -1.195386833276349 -0.5940202242492556 0.825287507851131  -1.296655448597995 -0.9614796122255694 0.460037240580255  -1.31793437860139 0.05225952987493204 2.731411973099033  -1.492037750164329 -0.04537433406292787 3  -0.8262722068337489 1.214214377293678 0.7319552811989505  -0.844926995554161 1.068622128813088 1.069123252014927  -1.652789181055146 1.123508329889683 0.9820547617975177  -0.911179233850709 0.406444019949456 1.163307837086328  -1.314897154059142 0.1070208957759803 1.450635008672167  -1.245130762560976 -0.2889533303603645 0.3509780132825951  -1.291798766716753 -0.222227216590204 0.7903288354638301  -1.681438847184343 0.02209342104386963 1.848541819215936  -1.418270870718573 0.08770913575380102 2.157018349698728  -1.712674355228347 1.018092581199935 0.3953999050837103  -0.9988204316776867 -0.01197635816027373 0.4906428092101087  -1.909045548548627 0.5633324043654053 2.657570655743448  -1.961570560806461 0.3901806440322567 3  -1.260123051423864 -1.540672376577078 1.701925022327931  -0.9858136949204921 -1.342106789180089 1.941367150305387  -1.239106987961229 -1.557919814127574 2.007873969271844  -1.580305958260196 0.4275683301379611 0.8988882789704619  -0.9273729073291088 -0.3711673189325002 0.4153610048404833  -1.979306087000891 0.2101088246663102 2.015075104935846  -1.939560067135936 0.4627395176246096 1.214058446966351  -1.951777400009669 0.4224643686483734 0.8069121487439513  -0.8565322307174396 0.9851968215745449 0.2806003666290897  -0.7319793474097477 0.6767994715531579 0  -0.8314696123025458 0.5555702330196014 0.3368551254436298  -1.481145788223528 1.332656409198891 2.620319746743644  -1.578008510672219 1.214628840397112 3  -1.377253428673846 1.44454596020626 3  -1.897442875023726 -0.6015812930195484 1.762338718678639  -1.969972668408264 -0.3048726139361433 1.778179663051902  -1.207236813657273 1.584074990238844 0  -1.067661353863925 0.9868268625447008 2.537163485791395  -1.378646892471328 0.9857052500752941 2.377250895472625  -1.706002944299271 -1.030573913169211 1.381074476777648  -0.7726014355937718 -1.079608252005977 1.969491187350024  -1.772518719756024 0.9061316499814949 1.723462302473687  -1.963461059963792 -0.3709860839702401 2.310841223256423  -1.0
[...]
<PointData  Vectors="f_18"> 
<DataArray  type="Float64"  Name="f_18"  NumberOfComponents="3" format="ascii">-2.1796720296278996e-03 -1.9472133315182340e-03 -7.1171722509090767e-04  -2.4915833201947257e-03 -1.5154144508349166e-03 -5.5191082325892508e-04  -2.3409532393922176e-03 -1.7396104014417522e-03 -1.3314951507485456e-03  -2.0709792047284032e-03 -1.6934731213913349e-03 -8.6434712191012762e-04  -3.4168613681058307e-03 -1.4535121488562768e-03 -3.7033336696949372e-03  -2.5665250333376678e-03 -1.5136576240203023e-03 -2.4226101876455219e-03  -2.7119656959280758e-03 -1.4199859465938373e-03 -2.2276510279016521e-03  -2.8607270346813290e-03 -9.3414530462302423e-04 -2.1783810262140614e-03  -2.7185685830057472e-03 -4.0894598395698959e-04 1.2807717786880439e-03  -2.8965549524322294e-03 -6.4002332757503175e-04 1.6242101000461565e-03  -2.6917428545498207e-03 -1.1394264202546475e-03 8.9064171454102342e-04  -2.8722283699521931e-03 -5.4369002247272387e-04 8.8968875699575040e-04  -2.3047580069248076e-03 -2.3234023962609000e-03 -3.0605024377779733e-03  -2.1611978168296544e-03 -1.6625519016042127e-03 -1.8981846363587925e-03  -1.9287513814873240e-03 -2.1524245827951307e-03 -2.3295575026997519e-03  -2.7977493395580830e-03 -2.4014460132662811e-03 -3.6811703962975565e-03  -2.9224127561799525e-03 1.3975910081167151e-03 -3.0846634499872121e-03  -2.6314562227331144e-03 1.8066034687988521e-03 -2.8351033213378988e-03  -2.2552686842728228e-03 1.8772434020187972e-03 -2.4836476369471390e-03  -3.1569965397031251e-03 1.7924721575565460e-03 -3.6907237645295026e-03  -2.0675314185935908e-03 -1.7033769308385997e-03 1.2294301587311503e-04  -2.5879935428061388e-03 -8.0401411925383546e-04 -4.2080143087694014e-05  -2.4300977040935087e-03 -1.8024591983249955e-03 -2.7349255511237834e-04  -2.7630123539490138e-03 -1.1286035194616830e-03 2.4076631729376302e-04  -2.1721880047859223e-03 2.3427276055918329e-03 2.8818881129631059e-03  -1.7230771854360454e-03 2.2442649080989825e-03 2.2641602100781813e-03  -2.6696578483700918e-03 2.5110553987646943e-03 3.8175657280827796e-03  -2.2898158624673698e-03 1.8304897177784470e-03 2.6271066288598025e-03  -2.3551707154764721e-03 1.2931431342590727e-03 -1.0690769324785312e-03  -2.4562406909273593e-03 1.0271927479020384e-03 -7.4819995472910617e-04  -2.4236188586555063e-03 1.1362405618514546e-03 -1.4283946796784992e-03  -2.6391484687620392e-03 6.7692177227725195e-04 -1.2682382815591791e-03  -2.8524666431609738e-03 -3.1441835908145713e-04 1.9895156206596481e-03  -3.1931905434570969e-03 -3.1536911320800674e-04 2.7701681940683980e-03  -3.0193692783572011e-03 -7.0401504709516555e-04 2.4173587554782820e-03  -3.0424625907330693e-03 -2.8153856905427659e-04 2.0820131589940568e-03  -2.1679413757055089e-03 1.4404157745548513e-03 -4.5872041961443643e-04  -2.3485792640527770e-03 1.1418890054369895e-03 1.2730801094507560e-04  -2.0907494360213256e-03 1.5878947912004561e-03 -6.5671682303569494e-05  -2.0212448056823032e-03 1.6552962695851904e-03 3.2330395118637011e-04  -2.5014993187253871e-03 1.6870120799292803e-03 -8.4478274242101310e-04  -2.6728341084076780e-03 7.1980412625218784e-04 -1.2342731959588634e-03  -2.9781739903007964e-03 7.9690415329161950e-04 -7.0787283474807417e-04  -2.4057809553613544e-03 -1.2905593972362629e-03 -5.5337934395526130e-04  -2.3392888408477436e-03 -1.2395614940221632e-03 -1.0133644871932745e-04  -2.4663826093640389e-03 -1.0597008467561413e-03 -7.2896498546030225e-04  -1.9186847505057764e-03 1.8520978452333885e-03 -1.4268192464888147e-04  -2.6550171241672715e-03 1.3906442931385392e-03 2.9689788303029523e-06  -2.7150012283982386e-03 1.1975325108624644e-03 -3.8967541575281100e-04  -2.5844958544400786e-03 6.1267574171235475e-04 -4.9910262897005233e-04  -2.5585544964677339e-03 8.6788989093658378e-04 -1.2789469092067770e-05  -2.7439135571082529e-03 4.6601318398562804e-04 -1.8732921830519260e-03  -2.9684977351156251e-03 2.5147582121079991e-04 -1.7889035056318997e-03  -2.9557099859601850e-03 3.2115326671830469e-04 -2.5350691284716470e-03  -3.1076605085847879e-03 3.6501819623254789e-04 -2.6094662393411861e-03  -2.8176502592871977e-03 -7.2149004666179593e-04 -2.3528352759983407e-03  -2.6870071859609844e-03 6.7981224263422902e-04 8.1265433847242479e-04  -2.7121836617626008e-03 1.2079526442183508e-04 1.3322850370754919e-03  -2.9574346439840710e-03 7.2975058563676276e-04 1.0080197665980129e-03  -3.0731223456532068e-03 -3.9723646151225576e-05 7.6244143314638734e-04  -2.7757162280300637e-03 -1.0876821914255451e-03 1.7242421358713382e-03  -2.5958146952583614e-03 -8.6904162428402365e-04 1.7310479985150620e-03  -2.5836030835394018e-03 -1.9030406488165651e-03 -2.8042336413350993e-03  -2.2855927635843151e-03 -1.7192367053981048e-03 -1.8528794527979263e-03  -2.3709477242906027e-03 -2.5386623707347542e-03 -1.7074797331598636e-03  -1.8057167000272165e-03 -2.5427613709102645e-03 -2.7719072419118479e-03  -1.7396947454553344e-03 2.2970436751136654e-03 1.7735528348317720e-04  -1.7113549770812443e-03 -2.0679346135515225e-03 -1.2880677566604478e-03  -2.0946338337003846e-03 -2.0477934030462787e-03 -1.4950412084746162e-03  -1.8032091251252813e-03 -2.3203665482469265e-03 -1.7422698082371494e-03  -2.1696826586944168e-03 -2.1571866040342022e-03 -2.2048010864810985e-03  -2.7064791704031589e-03 -8.5077356978496832e-04 -1.8044471096723932e-03  -2.4023324822492389e-03 -1.1720418762137229e-03 -1.2072858158703962e-03  -2.6015353103847000e-03 -7.5277749577387849e-04 -1.5357012862752830e-03  -2.6544083677034576e-03 -7.8381032632004143e-04 -1.1648998644349438e-03  -2.6647817013957698e-03 -1.0929894761103425e-03 1.0420207084868716e-04  -2.5305586495737733e-03 2.0549267167622055e-03 3.1786085794020622e-03  -2.1216524107487396e-03 1.6995965455357776e-03 1.8934034069237428e-03  -2.8831104544710306e-03 8.8241104725079089e-04 -2.0389259166286892e-03  -2.7519056576441412e-03 9.3547180454011769e-04 -2.4492486139226616e-03  -2.5567798812225618e-03 -7.8183369663618028e-04 2.1699464467735396e-04  -2.8063744336370264e-03 -6.1393249018150907e-04 1.6763987500548492e-04  -2.4328805258564249e-03 1.2392721911318732e-03 1.5110684240943202e-03  -2.0179404273877196e-03 1.7967300235875933e-03 1.1495349132980184e-03  -2.3527927403903582e-03 1.2222219717303478e-03 1.1561453938060990e-03  -2.4526106696594668e-03 1.6923055578061813e-03 8.2574007484108867e-04  -2.4431285442890189e-03 1.6246730076076475e-03 -1.6437186129597749e-03  -2.8037049389779889e-03 1.2994570877871978e-03 -2.5876606737773632e-03  -2.5058635530715375e-03 1.5196843042199510e-03 1.8744311919731394e-03  -1.9355516084080327e-03 1.9818440562736910e-03 1.8153616433032268e-03  -1.9547936085314863e-03 1.7622543027334299e-03 1.0886327075522648e-03  -2.6453376623720745e-03 7.8815510427080750e-04 1.9366879136675076e-03  -2.7821304557070648e-03 4.0628122895832506e-05 1.6921813344208041e-03  -2.8950941181602051e-03 2.3262317505407407e-04 2.4419709721998323e-03  -2.8166956346641551e-03 7.1609845426407305e-04 1.9631332383719152e-03  -2.9011697902216254e-03 -1.1299677121686619e-03 -1.1725749373883521e-03  -2.5424634855856086e-03 1.6619645603825617e-03 1.1333619700646294e-03  -3.0714967794041722e-03 8.5593895644249106e-04 1.3232340093557024e-03  -2.3539382016521263e-03 1.5541272381132396e-03 1.7130909746756457e-05  -2.6883609641738665e-03 1.1297224018392271e-03 8.2674304948902053e-04  -2.2513070631704499e-03 1.3789125363138513e-03 7.3086318202877953e-04  -2.9932895949001388e-03 2.0503100582638660e-03 3.8119465868249611e-03  -2.3554235811761794e-03 1.8718569870593187e-03 2.3362052224294829e-03  -2.6728399526633044e-03 -1.0985330547695826e-03 -1.0515554010042669e-03  -2.7399440134635313e-03 -3.9313713011705750e-05 -1.5267128117992708e-03  -3.0472019270004294e-03 -7.4432954926252203e-05 -2.4040326399497767e-03  -2.5923674316088146e-03 -7.5467076321580570e-04 7.6152239002287082e-04  -2.9090850264304742e-03 -1.0311310075308696e-03 9.3490410030337657e-04  -2.7619915453544136e-03 -1.7643245638493236e-04 5.5423135909834728e-04  -2.1466294304661026e-03 1.5832037106567700e-03 -1.1374390879755438e-03  -2.5053566084282898e-03 1.1683836860895357e-03 -1.7958176016714730e-03  -2.7036248889846940e-03 -2.8836629008349002e-04 -6.9415866885572724e-05  -2.6948683953191117e-03 -9.5379349985919297e-05 6.5796830525634189e-04  -3.4687726339181438e-03 4.6206033616713550e-04 -1.6989967436137391e-03  -3.0730522339978408e-03 1.4754720120959753e-03 -1.8075028774701251e-03  -3.0170933933503091e-03 9.1364460809454360e-04 -2.8226613748258619e-03  -2.6182349358523419e-03 5.7241085883571389e-04 4.7017538990531705e-04  -2.6099336161819050e-03 1.2369863091225368e-03 2.4631220155664634e-03  -2.7474447883400247e-03 1.5988321431808490e-03 2.8742880917611950e-03  -2.9551988572356649e-03 2.6240900739360923e-04 1.0502456211909520e-03  -2.9127473279968955e-03 8.5384205739123676e-05 -9.0451947795049401e-07  -2.6167595472004973e-03 -5.1621546673328461e-04 -8.8298854088831723e-04  -2.4034448453415860e-03 1.1693294074760535e-03 4.6776542543709406e-04  -2.0920166456493000e-03 1.9415512207333954e-03 -2.4310857622946363e-04  -2.3044680120753347e-03 1.6198351686071363e-03 -8.0379937072436061e-04  -1.9717281321261957e-03 2.4058689366514207e-03 1.3272917977449543e-03  -2.0299981959336546e-03 2.2537066854252568e-03 8.7377005666229189e-04  -2.3218926037152886e-03 1.6228413021508051e-03 1.9744122053477072e-03  -2.6711177591058079e-03 -3.5633841181009323e-04 -1.6570619154420833e-03  -3.0574432691452260e-03 -5.4547708029307009e-04 -2.5736897887088861e-03  -2.7070449078303608e-03 -1.1403417259578242e-03 2.5561279508013192e-03  -3.3761560811387762e-03 -1.6603559591441947e-03 3.8571246651601773e-03  -3.0670002442020187e-03 -2.1538907296862536e-03 3.8449526195688840e-03  -2.6142875228439984e-03 -1.8429630575171525e-03 2.7818099153852542e-03  -3.2134189914879482e-03 -3.3000442087343800e-04 2.9090879118862899e-03  -3.6746965022731786e-03 -5.5709770438477457e-04 3.8032136306605699e-03  -3.5420565902002771e-03 -1.1286971191587982e-03 3.8408245629148602e-03  -2.4357891385220700e-03 -1.2351261620579920e-03 1.1789920092538570e-03  -2.4783722713116302e-03 -1.2091979299393904e-03 1.1011222500496398e-03  -2.2630635424392325e-03 -1.6674820477573546e-03 2.1091126927742132e-03  -2.8709972218629461e-03 1.2270139948223737e-04 -1.9138282007702607e-03  -3.1882025442076336e-03 -7.6516342251480178e-05 -2.7746155334679038e-03  -1.5221775322847375e-03 2.1811117878426014e-03 1.3184613485181611e-03  -1.6392415001208525e-03 2.0588407225420246e-03 7.2788541310983611e-04  -2.3932359874236967e-03 1.5653442263226368e-03 1.1866302858597373e-03  -2.7379774736301316e-03 1.1762525637555470e-03 4.4238102114511153e-04  -2.6756569452923529e-03 1.8750901458348718e-04 1.6718160257236784e-04  -2.8092375194656719e-03 -6.6231139025221049e-04 1.7743770922464791e-03  -2.7472296333095935e-03 -4.6758580149473133e-04 1.1264722869253063e-03  -2.7200537379397146e-03 6.3604578765047169e-05 -6.2398926295461699e-04  -2.6639965345648452e-03 1.6252496569557788e-04 -1.0351964319035940e-03  -2.6817121423530006e-03 1.5551962952789899e-03 2.6291611454593192e-03  -3.1562897862234401e-03 -3.3638547609603990e-05 1.2252193740200732e-03  -3.0202201448556059e-03 9.3487568831347745e-04 -2.7058639628527270e-03  -3.5417027010555117e-03 7.6615379812489744e-04 -3.7433689042110636e-03  -1.8848000876565125e-03 -2.2409751935689890e-03 -3.7382155921598622e-04  -1.6328473595780223e-03 -2.1785163075244362e-03 -8.0083153528182126e-04  -1.8330311019570426e-03 -2.2499020241728298e-03 -1.0639488404356853e-03  -2.5952662094489475e-03 6.6801544260174843e-04 1.1871037111753492e-03  -2.9128013231329436e-03 -1.1423938440928609e-03 1.3134387634874750e-03  -2.9133775071060980e-03 3.3404482538898299e-04 -1.0898670315068041e-03  -2.8022484368571523e-03 6.7438568338204562e-04 6.9313493485878661e-04  -2.8892913630785520e-03 5.8808133975429887e-04 1.6147576821228477e-03  -1.9012556335477114e-03 2.1470533320086913e-03 1.9135575154342159e-03  -2.5052063678107960e-03 2.2576112368915941e-03 1.7981737849574546e-03  -2.6518508832664069e-03 1.7060382508035379e-03 1.3980813754868738e-03  -2.3280437891938228e-03 2.1191904640475820e-03 -2.6150517186868971e-03  -2.7985372103760150e-03 2.2271236329620614e-03 -3.7170275536790739e-03  -2.4603244098813618e-03 2.6833613761432420e-03 -3.7269409999221227e-03  -2.7604434084920353e-03 -8.6265730309971586e-04 -5.0803549702633079e-04  -2.8377397595304751e-03 -4.4202301202939841e-04 -5.7749265357143057e-04  -2.2425597371223322e-03 2.8806026160729742e-03 3.8004880005620273e-03  -1.9955915022666711e-03 1.8991977752388710e-03 -1.7678153476782120e-03  -2.2141229799648630e-03 1.6122141911363275e-03 -1.7311403011098210e-03  -2.4328631297944889e-03 -1.4429759842979309e-03 3.4484891411104855e-04  -1.5866194086985128e-03 -2.1773373837705528e-03 -6.9094048053567486e-04  -2.5358077140983687e-03 1.3097294098612100e-03 -4.6836765799328949e-04  -2.9205645429851296e-03 -5.1043110540690433e-04 -1.7841621482246718e-03  -1.6604824390652809e-03 2.5197241181035639e-03 2.3170520933501774e-03  -2.0989958260884630e-03 2.3068792114098323e-03 2.6441474573823979e-03  -2.9878409855850778e-03 6.2205615383633165e-04 -9.1582500249310215e-05  -2.5552726778910674e-03 2.4386062097588573e-03 -1.6494360301038472e-03  -2.5422983024962886e-03 1.7718343637891491e-03 -1.3074899465670635e-03  -2.5595440683523884e-03 -1.3121625931125929e-03 1.9735760594763543e-03  -2.9407237052463419e-03 -1.4080903671176651e-04 -1.2897471305397994e-03  -3.0510474566930964e-03 -1.0766726798938210e-03 -2.8089210419119624e-03  -3.5473202222831113e-03 -9.1089505566868516e-04 -3.6986590081903394e-03  -3.0686805096610567e-03 1.5048157046873746e-04 1.8877302710784290e-04  -2.9588638466168230e-03 1.1403621425531696e-03 2.6714937519907995e-03  -2.7270446822238430e-03 1.0526278353814172e-03 1.8189242058605376e-03  -3.0711794415457642e-03 1.8076735486711697e-04 2.4085975572868978e-03  -2.6931818951944652e-03 -1.9855018573790973e-04 -5.1617533898116314e-04  -2.6689874834856069e-03 3.3257638770491874e-04 -8.8577990023180318e-06  -3.2390672707737034e-03 1.9125392401552483e-04 2.6287418935155545e-03  -3.7257933818833928e-03 -3.1317400708049531e-05 3.8320102086048676e-03  -2.3735529299691743e-03 2.2155950675870587e-03 -3.1243140209682983e-03  -1.8377483280058945e-03 2.4453133100599510e-03 -1.2999300778226814e-03  -1.8328273416297362e-03 2.4604429398867684e-03 -9.4412819754264199e-04  -2.8802897724547784e-03 -9.2313150690927312e-04 -3.8656856170264707e-04  -1.6843050336175795e-03 1.9933235923488475e-03 3.0138408767433071e-05  -2.1453703831196590e-03 2.0008868565087701e-03 -1.7074029316724128e-03  -1.9316796468528458e-03 1.8216118415489606e-03 -1.1498184924054410e-03  -3.2671833656589440e-03 1.5710468976774226e-03 3.7892151086683923e-03  -2.6781726899127978e-03 -1.5356197828627796e-03 2.0501952109952880e-03  -3.1026759086385932e-03 -5.3633587742269904e-04 -2.5989779872141786e-03  -3.6072024130471064e-03 2.1207713151518624e-04 -3.7081668397548635e-03  -2.1242894400422380e-03 -1.6798141365891573e-03 -1.1448388349569725e-03  -2.3421150695425753e-03 1.8206278283109305e-03 4.8885863690408839e-04  -3.1843950643186229e-03 1.4144676095524547e-03 1.7503536323130134e-03  -2.4928553310137758e-03 -1.8263640177387862e-03 -2.5113254849592078e-03  -2.8836306220135022e-03 7.2030276307842177e-04 2.6668442350243847e-03  -3.0048424869157453e-03 6.7162505014707076e-04 2.4582373506079635e-03  -2.4005536140293592e-03 -1.9267268496578154e-03 2.2861818597109708e-03  -2.4082366324381871e-03 -2.1572381452222272e-03 2.8371165898473795e-03  -2.1305566218367362e-03 -1.6610274849459196e-03 -2.4489797894311120e-04  -1.4371659712017438e-03 2.6646741298266708e-03 8.5503363876828582e-04  -1.8712266100185861e-03 2.3699985017072698e-03 5.6821726100434518e-04  -3.5054304919946927e-03 1.0606968903552317e-03 3.7747014618307105e-03  -3.0868560850491134e-03 -1.6911137513755832e-03 -1.6601734125660493e-03  -2.5130818959426659e-03 -1.9083568109316527e-03 -1.3100838853484025e-03  -3.3652886036071613e-03 1.2604759830984456e-03 -3.7324652767916399e-03  -2.3825241170588930e-03 -1.2961597037634105e-03 4.7439901688903436e-04  -2.5079355526827166e-03 -1.6934429004955382e-03 6.1356926600500015e-04  -3.1943281902451623e-03 7.0427289856929366e-04 2.8730676307728215e-03  -3.4764926595631587e-03 3.4540272284883360e-04 1.7531032646271611e-03  -1.7945350759948611e-03 -2.5374384714411369e-03 -1.2681105588930317e-03  -1.7599063192890020e-03 -2.1138859724341126e-03 -1.7352192826136225e-03  -3.0729118391841018e-03 -1.2408020745584413e-03 2.9049610233842088e-03  -2.3869705023439446e-03 -1.6021095974165602e-03 1.0707824608095484e-03  -2.1278744877692951e-03 -1.5410797342044001e-03 5.4953111459571575e-04  -2.9174667776655323e-03 -1.5382461952431323e-03 -3.0962305327738599e-03  -2.1364247322659437e-03 1.8897105804715911e-03 5.2159177366494630e-04  -3.0799756003384248e-03 -7.7160535261774330e-06 -7.5677303014584933e-04  -3.1200312417942141e-03 9.2947521788848094e-05 -1.2933600516319575e-03  -2.5406583728651076e-03 -2.0572930515676460e-03 2.8903676975888457e-03  -3.1625397099999237e-03 -1.7710339922016450e-03 1.7671683970210620e-03  -2.0916349789704752e-03 -1.6887734082640113e-03 1.2458834638938328e-03  -1.7963212814711979e-03 2.6772328396916572e-03 2.5750395789632644e-03  -2.1252699047482801e-03 2.0181881350265860e-03 -6.0000096592829324e-04  -2.1214719837762573e-03 2.2215374479840518e-03 -2.3588704329563208e-04  -3.4621565365845872e-03 -7.0338728781213999e-04 1.7210632579851676e-03  -1.9180367022041951e-03 2.1455388931424530e-03 1.4473245581219862e-03  -2.6748021518079460e-03 1.0767499307444747e-03 -9.9948499361357090e-04  -1.9094468333364454e-03 2.3765472740924763e-03 -2.1710875242134443e-03  -3.3362060238189516e-03 -6.1876324721470990e-04 -1.7194436142082250e-03  -2.5698648590259010e-03 1.7299310172749841e-03 -2.5165471973416999e-03  -2.8901091475460878e-03 -1.1334119776558623e-03 2.5985131404392828e-03  -2.1508058271340566e-03 -2.1151384662807080e-03 -5.8588899197215721e-04  -2.4782451482451636e-03 -1.8578691639537126e-03 -8.3524866779167972e-04  -2.4436788373108109e-03 -1.9012851978569996e-03 1.0909515345241449e-03  -3.6675892968645709e-03 5.1155676649715181e-04 3.8039640869945873e-03  -2.3198896167572060e-03 -2.7385231452349483e-03 -3.6800606237789349e-03  -3.0779593266440715e-03 -1.9152151328831963e-03 -3.7043950355228595e-03  -2.2300520039020043e-03 -1.8187368767285130e-03 2.4914789878021086e-05  -3.0464323540155885e-03 4.0809280898542736e-05 -3.4456492234615768e-04  -3.2079682260399557e-03 -5.8122306643330543e-04 -3.0488486839184877e-03  -1.7843701168412684e-03 -2.0437496631753012e-03 -2.5092439209164954e-04  -2.8997744194142316e-03 -7.9131443139859609e-04 -6.6072036861996805e-04  -3.6538952637197902e-03 -3.6157938220320133e-04 -3.6906251375445351e-03  -3.0122942781849937e-03 -3.4443716085993462e-05 -1.0028169555913768e-03  -1.4958330011666532e-03 -2.5465094599747963e-03 -6.1983898610221014e-04  -3.2342022123697470e-03 3.7628351995805598e-04 -3.0813385160775543e-03  -2.9762204186947585e-03 8.8110238306651442e-04 -1.3236376079257864e-03  -2.7886276153687053e-03 7.9246946519675532e-04 4.9077508700020411e-06  -1.8254542900972648e-03 -2.5081772848397506e-03 -2.5198102074546810e-03  -1.7925837232231638e-03 3.2035838627983470e-03 3.7782201874848554e-03  -1.5646934039467394e-03 -2.4425463926075566e-03 -7.5319672832515781e-04  -2.7832850227678492e-03 6.6887307525331004e-04 -7.0289062762980302e-04  -2.1621097591105034e-03 -2.1176623446551718e-03 1.5152604236300002e-04  -1.7935311863538613e-03 3.0937824441285410e-03 1.7312211145179689e-03  </DataArray> 
</PointData> 
</Piece>
</UnstructuredGrid>
</VTKFile>