<?xml version="1.0"?>
<VTKFile type="UnstructuredGrid"  version="0.1"  >
<UnstructuredGrid>
<Piece  NumberOfPoints="513" NumberOfCells="2037">
<Points>
<DataArray  type="Float64"  NumberOfComponents="3"  format="ascii">-0.9260063084614851 0.3756723916478909 2.088494690531251  -1.215387188971444 0.5119852676208858 2.211144537160126  -1.169199657083873 0.3285258581972214 1.959879554366241  -1.323900903417153 0.1968728161777803 2.29048176525354  -1.65102550751847 -0.5853418105724925 1.000443999264721  -1.972717401737126 -0.2770048687796395 0.928821562964615  -1.909838062722855 -0.5607198352585883 0.7758128115671631  -1.94654710247373 -0.4397063489256637 1.212904324282488  -0.9656126141925141 0.2451078993645466 0.903476229672846  -1.307273153197141 0.04102778345962579 0.7482857790902816  -0.9842502912171535 -0.1599094768274606 0.8684447600518961  -1.249215610799177 0.2430717103564773 0.9671430603142159  -0.9999937435268486 -6.352303793224264e-05 1.579944513727601  -1.312522004451318 -0.1514771375360489 1.769733720506073  -1.219701320019046 -0.256368583217724 1.513705607402347  -0.9710382679627432 -0.2272219158894408 1.66365709242607  -1.152564308322334 -0.6146102306519087 2.290519749049988  -1.112536592270995 -0.4970888852843044 2.032597829790319  -0.9411061816656194 -0.3258947806828741 2.338450351231977  -0.8361908746458244 -0.5467373724377904 2.130302338675527  -1.130289610535039 -0.7323124340292029 1.277776118524968  -1.266766286138908 -1.008906445544718 1.063624260447531  -1.483646847244597 -0.7451701819327663 1.284945495695263  -1.362258947965439 -0.6597119788061743 0.963947159543588  -1.153565928215088 0.3961550794954058 2.777688352315749  -1.28765668591996 0.113830202492347 2.707337524720061  -1.168488944387141 0.3617291064365978 2.501046815526986  -0.9850810122422609 0.1514750247149763 2.727173728961688  -1.009379236606645 -0.7732337977636983 0.965491390307064  -1.296220627873219 -0.6472349211577371 0.7217461812114134  -1.188984052332926 -0.4254961644111375 0.7718489876806194  -1.235655536796483 0.3433994754859898 0.6946751998039692  -1.305299513639754 -0.2617408950762999 0.3238781852583938  -1.54815647609857 -0.2653476145938544 0.22261107454997  -1.583912438798967 -0.464312102321836 0.39108120278089  -1.473428042386052 -0.2606991630884039 0.6547314839504961  -1.252208718574231 -1.255676782608476 2.240162865292683  -1.567305757386662 -1.227670183009062 2.416022748715736  -1.427887152445046 -1.397552244662979 2.055194890811689  -1.427887152445048 -1.397552244662976 2.512760650241201  -1.664910923673525 0.432614917869194 2.357777735902025  -1.922341592596459 0.5195012212131185 2.489821363404443  -1.928305028540357 0.4998424074987824 2.165087777197687  -1.970560222047508 0.2989070817250175 2.341044639907967  -1.98675399845975 0.1344889105926879 0.5313495212184398  -1.661653823734134 0.03079869070401731 0.7297828569381692  -1.62407752486137 -0.06307331489345444 0.372839708262396  -1.760011020697118 0.3037424123478172 0.5106187273310807  -1.884217526686909 -0.6451794236453519 2.491823020778211  -1.9459936380826 -0.4415308765076 2.345924563952366  -1.957396875122214 -0.4039394418361448 2.563423834151393  -1.699000340662239 -0.4428050437445591 2.467721064216187  -1.121818190098454 0.6061936883416127 0.8266300311499966  -1.433939384560817 -0.4238274762576875 0.8699118466181608  -1.573784807892008 -0.5805046025967722 0.7101690556525573  -0.9411061816656194 -0.3258947806828742 0.3551781620400321  -0.9941832724223048 -0.05905822619464331 0.2807537968460868  -0.9941832724223048 -0.0590582261946434 0.4972761553387438  -1.402347010012292 0.4920558751288001 2.761988400613965  -0.8082330127850601 -1.503186699293603 0.2357649048814419  -1.017455922484892 -1.418005519279919 0.3938334665567997  -1.029412160275252 -1.706623914158315 0  -1.127801783749323 -1.649265634533138 0.2920578331429886  -0.9908701925345239 -1.263496194925009 1.056104050844839  -1.062257142436844 -1.011050045281292 0.7321183252305898  -1.004926215744018 -0.9717965485057757 1.169910315842186  -1.335337400902062 -0.7860545710461491 2.550460757321372  -1.593615622573879 -0.792032947646325 2.520412296593137  -1.588912883050472 -0.7889275903798316 2.791355739196442  -1.564334158058351 -0.5889188034608139 2.683879869136377  -1.581290903713539 -0.2970897441185306 1.048369966819071  -1.743120307703398 -0.06304948615626116 0.9919043794899579  -1.680230049749189 -0.1711975444313317 1.357373068767943  -1.462974575698371 -0.09060976069308574 2.759414478044269  -1.303404570440123 -0.06724211453096629 2.461721022665841  -1.249679095813348 -0.2601979459792874 2.727966810990917  -1.441186560264091 -0.3492890134375373 2.492791099351328  -1.194979136873971 0.9101429222428052 1.043890337845854  -1.280339600673329 0.8142753281091926 0.8082459380031127  -1.501397742985334 0.8632673176568763 0.9405261858769782  -1.219162746384527 0.6233008326600873 1.084043049722833  -1.382319199378073 -0.5907418376753506 2.013010320636827  -1.06657240619417 -0.7663622070196903 1.947062030830022  -1.223001019254242 0.1550573634103403 1.409304678032743  -1.513981671922467 0.06346738925087642 1.553369403795612  -1.334551029363847 -0.1015244881255466 1.294613982702496  -1.262475507549776 0.3869775720524342 1.219340501184618  -1.611647052306065 0.3554398012864973 1.316835097312015  -1.4817894223598 0.3490363229274818 1.100724046177009  -1.464059630891175 0.1387576624741818 1.307060864680669  -1.67463157484072 -0.1501708347366142 2.36216375168643  -1.632864458372463 -0.4191082906465651 2.101189180998846  -1.995082405095516 0.04992917896255156 2.443660382031406  -1.66755928569038 0.1812450342360503 2.190262165414482  -1.766156086691165 0.2297663557929015 2.49393410343154  -1.757364381994009 -0.05151822786741123 2.143385105486461  -0.9332399319050438 -0.8329507000756384 1.430972631249643  -0.7895298084505613 -0.6066740318757129 1.5286319452466  -1.038612370612227 -0.713293946212182 1.647778346967149  -0.8922614140538092 -0.9598247585280195 1.721329349967923  -1.82404655335021 -0.8097298537821912 0.7258268606511862  -1.837177028272594 -0.7851644630181105 1.125614227511518  -0.6229198099826866 -0.7761972429176593 0  -0.7011924285577662 -1.116007026656368 0  -0.7973461611764788 -1.031989847821273 0.3007238726898137  -0.9041024360369281 -0.8914374799329257 0  -1.490212894739336 0.1024283258350408 1.048555704281198  -1.269047057448465 -0.1238640230096709 0.9996125339283918  -0.9941832724223048 -0.05905822619464333 2.677331707366085  -1.966488155710956 0.34025146506968 0.3195083575913187  -1.718039026733599 0.4021564729060674 0.240102687862987  -1.901028395336979 0.5897614165975682 0.2715355899294156  -1.909838062722883 0.5607198352585618 0.4685414821717258  -1.215914184486183 0.0722052841382636 1.152181808573573  -1.550860895813692 0.7743665571272234 0.6777793944735439  -1.73350680003723 0.9791178182666499 0.7418357746042745  -1.829625738534411 0.7992919324575475 0.5658120083177366  -1.871938515486758 0.6856578988148563 0.9111158509006674  -1.465055270517109 1.000012001635756 1.147846198214053  -1.548706672354905 0.6786497599334139 1.233793657262481  -1.476425729496703 0.2066045208918142 3  -1.630123886592809 0.375451745420793 2.685459653224462  -1.773980371139813 0.2218805325960953 2.782707204985573  -1.693466300542116 0.2279811513195173 3  -1.366474266489984 -1.047771008361796 3  -1.221175608913794 -1.041455249973299 2.756322037536186  -1.221038484335588 -1.19820485525533 3  -1.500136972962329 -1.30951558363957 3  -0.5620455767304046 -0.8261554350557641 0.917008705134106  -0.8110304134403988 -0.9556128599400331 0.8778429181909299  -0.7431286293629809 -0.6632140321853688 1.14105304140432  -0.7098319736689174 -0.7037861245388741 0.7769317489877905  -1.391147011987356 1.06525700924507 2.756869952670498  -1.260017126109219 1.174917670010183 2.427905230488051  -1.507328219677138 1.300753024164202 2.713336764402187  -1.165230715369792 1.205390575913933 2.689956132617993  -1.721773787789576 -0.003935568816488877 2.78688486891622  -1.995734852768018 0.043304766574551 2.718583275510576  -1.983929507246338 0.1631664511407618 3  -1.803507605944916 -0.0630922066319478 2.558029022606106  -1.974816562346712 0.2556917334395575 2.654325372778719  -1.089812399683726 -1.021243261100018 0  -0.8987805921620252 -1.319845098533642 0  -1.116895818781933 -1.161934819761162 0.370270074731517  -1.546861241560049 0.5688588129640406 0.3522510134588102  -1.605968895026453 -0.7390282026009384 0.4851812485290803  -1.840981367244331 -0.7780470454081483 0.3436477599646534  -1.73350680003722 -0.9791178182666684 0.2877286554780817  -1.73350680003722 -0.9791178182666687 0.5388107162882877  -0.9270005828501531 0.3723947082499905 2.361375773110511  -0.9850810122422609 0.1514750247149763 2.510697486762824  -1.465174940095696 -0.9338008255969225 2.344198929805061  -1.550999611374352 -0.6339550912555464 2.31831935342786  -1.365668187016484 0.9299040139860805 1.367410651434479  -1.364828507948321 0.5898346271429308 1.50358242883754  -1.561976378311393 0.7892151608032022 1.509996634791825  -1.39691577300538 0.8911861814548782 1.730336489180808  -1.447303353351953 0.3517831149908241 1.964888327648917  -1.618075865260566 0.4074476862232218 1.663634259704036  -1.681292409562479 0.1034354428021357 1.853486641591569  -1.722294987833647 0.4396160314857099 1.971911705062555  -1.600076204029122 -0.7509059370788016 2.093815082986296  -1.891214363412786 -0.622113944100068 2.230867755903939  -1.777784591742112 -0.8962798964221964 2.211179134608378  -1.275597160088317 -1.167869433059521 0.6132159840926475  -1.199121442982144 -0.9273700183312629 0.5130642412362458  -1.51625229223465 -0.8815743425805951 1.041474482512132  -0.5584414848654666 -0.8291132368095167 0.6434751802119618  -1.439210747037442 0.8722278955756767 0.2966160678140998  -1.679741028279417 1.079706502283821 0  -1.787272571795044 0.8785291342494774 0  -1.73350680003723 0.979117818266649 0.3897882420311979  -0.9408568860267614 -0.326716598267604 1.46112762190211  -1.144618219240531 -0.5094773
[...]
<PointData  Vectors="f_18"> 
<DataArray  type="Float64"  Name="f_18"  NumberOfComponents="3" format="ascii">-2.8437920096499508e-02 1.1820318829923454e-02 -5.2962950730795133e-03  -2.3605081540441258e-02 9.9752779632104223e-03 -4.9935919606847370e-03  -2.6305352355810396e-02 7.5731942351920812e-03 -3.6663585473150962e-03  -2.4909636536099605e-02 3.9849690782777321e-03 -5.5020312125621937e-03  -2.0779768128167442e-02 -7.0254812015464367e-03 2.9257483139055306e-03  -2.0299808815444732e-02 -2.4724185615483695e-03 2.8834025859558817e-03  -1.9394296463058468e-02 -5.4590348411336373e-03 3.6278324417188391e-03  -2.0265176253851595e-02 -4.3270708549068395e-03 1.5387108269156213e-03  -3.0088392193611164e-02 7.6024576111244019e-03 5.3392626437205959e-03  -2.5748815683249649e-02 1.0602018531711776e-03 5.3870387142407128e-03  -3.0346313221207396e-02 -4.3072096889914344e-03 5.8473095260352130e-03  -2.5987415431075363e-02 5.2361635911556247e-03 4.1300950923483012e-03  -3.1169471337676558e-02 2.4357569894077923e-05 -6.4632891801906078e-04  -2.6110939232888111e-02 -2.7900407613506584e-03 -1.9154394282543633e-03  -2.6531966413742194e-02 -5.3375411225461992e-03 -2.6808932155585378e-05  -3.0527010554455700e-02 -6.6261030198385079e-03 -1.5704163522702573e-03  -2.2611611288237878e-02 -1.1736111820469809e-02 -5.6833069376189503e-03  -2.4892609118936936e-02 -1.1016391398841389e-02 -4.0233186539680660e-03  -2.8596439685464371e-02 -9.3012991081000505e-03 -7.3419722380981996e-03  -2.5661445992186723e-02 -1.6366265091598404e-02 -5.7362812393515657e-03  -2.1660840122610266e-02 -1.3847015234611154e-02 1.6996900091713937e-03  -1.8014606091625161e-02 -1.3987846846323539e-02 2.6369390062737580e-03  -2.0435633838781424e-02 -9.8662280084772999e-03 1.3244880263920615e-03  -2.1549197312299123e-02 -9.9608431348458745e-03 3.5199420606652392e-03  -2.3522013912916494e-02 8.2622815590700505e-03 -9.4723002328785683e-03  -2.4238563399559966e-02 2.2692669397736290e-03 -8.4640442775683403e-03  -2.5000521137805098e-02 7.9034868304815823e-03 -7.5524557174918181e-03  -2.8226536498520423e-02 4.3930839037255049e-03 -1.1164342425892907e-02  -2.1032650779216754e-02 -1.5883169664806233e-02 4.0193985783880800e-03  -2.1660610897934088e-02 -1.0388702892475786e-02 5.1295469504598979e-03  -2.4785625493635478e-02 -8.7573525765160375e-03 5.4829252471086023e-03  -2.4951347675101578e-02 7.0558130227261926e-03 5.9430207335091799e-03  -2.3660113366437578e-02 -4.3536941400152615e-03 8.2027976583549447e-03  -2.1024328731571153e-02 -3.3325024793598966e-03 7.4812294480572430e-03  -2.0496159797500028e-02 -5.7581101542812374e-03 6.3030826805769661e-03  -2.3322394704452923e-02 -3.8399258851439491e-03 5.4520034940562668e-03  -1.5081335691018334e-02 -1.4682680140172828e-02 -3.9509134262388093e-03  -1.5393523787301563e-02 -1.1793711723733313e-02 -4.1572907961396031e-03  -1.4608773678822748e-02 -1.3881736319327296e-02 -2.5368261088154756e-03  -1.3781511949546847e-02 -1.3109232600000057e-02 -4.5107090859414830e-03  -2.0975802732398702e-02 5.6024956205209756e-03 -4.6385785108986281e-03  -1.8933156993214056e-02 5.2629420211232998e-03 -4.3464145750216560e-03  -1.9662766441514917e-02 5.1348053348224667e-03 -3.0212989719502789e-03  -1.9650689983341227e-02 3.0798510983346622e-03 -3.7051361922141638e-03  -1.9606609219729471e-02 1.5470672073454920e-03 4.6388814849986333e-03  -2.2268099557267280e-02 6.7909699833058825e-04 4.5438695189626245e-03  -2.1584635093959879e-02 -5.6841016476118081e-04 6.5808613173083379e-03  -2.0451563011233929e-02 3.7638109374763247e-03 5.2362389317572875e-03  -1.8307006234967442e-02 -5.9878697678655869e-03 -4.3537429397701236e-03  -1.9322603668503271e-02 -4.1681864045006387e-03 -3.7218819367520841e-03  -1.8632572466626918e-02 -3.6548600264980037e-03 -4.5787352119999111e-03  -2.0077965445159787e-02 -5.0067789914040170e-03 -4.9246900640818889e-03  -2.3294704705807173e-02 1.2548826782865384e-02 5.1163362543176346e-03  -2.2995605989067650e-02 -6.5470821273534837e-03 4.1262504650724213e-03  -2.0816185573720419e-02 -7.2854795309945358e-03 4.6348077736795930e-03  -2.7457801410445726e-02 -9.0168769468675029e-03 1.0518161418830963e-02  -2.8791433536973624e-02 -1.5196998727078739e-03 1.1007715509069187e-02  -2.9857022962740523e-02 -1.4015025785784842e-03 9.0619754650188445e-03  -2.0682552337952902e-02 7.4889239961866954e-03 -7.5590565500545511e-03  -9.7401734729008621e-03 -1.7359067396381506e-02 6.6546068365382714e-03  -1.2056695851588169e-02 -1.6353063401812203e-02 5.8775830241071863e-03  -9.2865149882420950e-03 -1.4480392049340545e-02 6.6707669377368290e-03  -1.0752667249506648e-02 -1.5012589000131502e-02 5.4150691910530117e-03  -1.4450375854893893e-02 -1.7725794593929440e-02 2.7696831188137416e-03  -1.7283986343763810e-02 -1.6171349707687396e-02 5.0432794074423632e-03  -1.8156678299003037e-02 -1.7249779660811329e-02 2.3806992378827400e-03  -1.9082457873642197e-02 -1.1035985965800665e-02 -6.2047786349186396e-03  -1.8368922389426428e-02 -8.8590812593373723e-03 -5.1562880712755325e-03  -1.7417747546196315e-02 -8.3892574380446828e-03 -6.4483105619716858e-03  -1.9320730911752362e-02 -7.0364756155054794e-03 -6.3654115127205028e-03  -2.2755061216773016e-02 -3.9366335466975468e-03 2.8979932826595487e-03  -2.1891862822193870e-02 -5.6505089974870641e-04 2.9491691697787689e-03  -2.2596134783329072e-02 -2.1260176891893289e-03 1.0580563598249109e-03  -2.2099329868550403e-02 -1.0323233409350739e-03 -7.5452312474416396e-03  -2.4844984073873703e-02 -1.0961538252793764e-03 -6.7757433921704748e-03  -2.3676701536648779e-02 -4.7268994433212145e-03 -8.6842161998631553e-03  -2.2318917861360057e-02 -5.1930911900760204e-03 -6.1590094222699352e-03  -1.9161564644650454e-02 1.4605639355240955e-02 3.1300709773634675e-03  -2.0010375856501367e-02 1.2704314120643566e-02 4.4322528787184828e-03  -1.9122542576213007e-02 1.0969118461207589e-02 3.1375789968537456e-03  -2.2532719735066799e-02 1.1578539869317265e-02 3.1537709636733639e-03  -2.2071822941401534e-02 -9.0386615849916401e-03 -3.3025779009287614e-03  -2.1209877740751532e-02 -1.4893845284674554e-02 -3.3147089519558444e-03  -2.7069004167407418e-02 3.6154640666234716e-03 9.1863976609561973e-04  -2.4115765134324216e-02 1.2999839806351107e-03 -2.0124150824128267e-04  -2.5915818969086544e-02 -1.8158602639462874e-03 1.5504199102481511e-03  -2.5118990228845155e-02 7.8626357084281701e-03 2.2349199355298356e-03  -2.2459646742093040e-02 5.1784506262910019e-03 1.1000490989186986e-03  -2.3303797775261606e-02 5.6844551342047581e-03 2.4518320133105147e-03  -2.4325338101303481e-02 2.5856305404819532e-03 1.2647323921259521e-03  -2.1656853882665913e-02 -1.7711653461251198e-03 -4.5768623274728424e-03  -2.1614280794271166e-02 -5.2425419608368700e-03 -3.2388162194210970e-03  -1.9735152987133704e-02 6.4253991042854746e-04 -4.1129570679802165e-03  -2.2218595276154857e-02 2.6403857289311735e-03 -3.6974384960266017e-03  -2.0507198125171346e-02 2.7644091772834893e-03 -5.0972411119781817e-03  -2.1651353625540354e-02 -4.1723064999263886e-04 -3.3042048574473165e-03  -2.0067423826206809e-02 -1.7720835759923764e-02 4.1782713893336027e-04  -2.4971195104867856e-02 -1.8657652805354093e-02 -7.3378903118135466e-05  -2.2184881446616754e-02 -1.4935839368147638e-02 -1.1686338435141046e-03  -1.7899276471874909e-02 -1.8651545171412522e-02 -1.5726027294416375e-03  -1.8333077263307348e-02 -7.7183263469067127e-03 3.6892138367735122e-03  -1.9034336851249525e-02 -7.8965011117688791e-03 1.9899264353754643e-03  -1.6747235458286071e-02 -2.0271222328800589e-02 1.3482553399171770e-02  -1.2032234855338638e-02 -1.8265087358002714e-02 1.0125511735792632e-02  -1.5035931386644188e-02 -1.8714863318103375e-02 8.4572973760380105e-03  -1.6509338422423143e-02 -1.5639366158830801e-02 1.0562422466049121e-02  -2.4189543494240236e-02 1.8645113505649671e-03 2.9951077667478422e-03  -2.6028803334693176e-02 -2.5288490582105819e-03 3.7751445692858075e-03  -2.8853125837767453e-02 -1.3483373384398699e-03 -1.0571138046716201e-02  -1.8716213400194495e-02 3.3732510310979773e-03 5.4248151454133866e-03  -1.9471470095684066e-02 4.6348133081395224e-03 6.5580986029938693e-03  -1.7911752423955860e-02 5.7464158525900198e-03 5.6025924103583168e-03  -1.8762336670440992e-02 5.6220335454933634e-03 4.8010870872612537e-03  -2.7464817549642088e-02 1.9382744807077690e-03 2.7289648529386767e-03  -1.9395404248990195e-02 9.6208295259195397e-03 4.6373665462229397e-03  -1.7719078738121109e-02 1.0022608288613044e-02 3.5979465952356159e-03  -1.8078766659480515e-02 7.8873580087287839e-03 4.3543428577810196e-03  -1.9263507827304027e-02 7.1112001140638051e-03 2.8319337300721512e-03  -1.8188474477458968e-02 1.2363394866604423e-02 2.0339867665726281e-03  -2.0821349099689152e-02 9.2248908585373275e-03 1.6107590246791437e-03  -2.0240282908031731e-02 3.0426219905915360e-03 -8.7561636712613859e-03  -2.0226419445946196e-02 4.7371308411318378e-03 -6.4176924879235887e-03  -1.9320905765378676e-02 2.6386765775022946e-03 -6.3072956962648904e-03  -1.8715778012501908e-02 2.7881714404866553e-03 -7.6464238694345611e-03  -1.4916256907147043e-02 -1.1182388640420824e-02 -7.6222857619429986e-03  -1.5904575718415401e-02 -1.3187545274873121e-02 -7.0292711055281775e-03  -1.3593094191609246e-02 -1.2958495763296626e-02 -7.7276770380385971e-03  -1.3193717815689784e-02 -1.1204857228788936e-02 -6.6354748001334965e-03  -1.7112187652498376e-02 -2.5360577838339449e-02 5.3440308409614971e-03  -1.7318118452913082e-02 -1.9844070967348856e-02 4.8032846848414879e-03  -2.3180966044682987e-02 -2.0368518636073044e-02 3.4217251560671740e-03  -2.1688733205067246e-02 -2.0776500185915790e-02 6.5303448379629148e-03  -1.5908386352702072e-02 1.2132013388835886e-02 -6.3114912457778944e-03  -1.5737428597672246e-02 1.4549790229754445e-02 -5.0086853285967320e-03  -1.4317116053476492e-02 1.2270273831306111e-02 -5.3406185964972293e-03  -1.4531748102497353e-02 1.4927332558196503e-02 -6.4231617963522586e-03  -1.9919663957431097e-02 2.4404769089980208e-04 -6.5178395401086428e-03  -1.8549420724016434e-02 5.6923809591736619e-04 -5.1951857785273283e-03  -1.7420278712126463e-02 1.6488830381491211e-03 -6.4879886391477704e-03  -2.0279181365929176e-02 -5.2579824101712852e-04 -5.2171269104903341e-03  -1.8667375496640246e-02 2.5215205530786039e-03 -5.0821434291343824e-03  -1.5132316208041235e-02 -1.3642400924671992e-02 8.8907412880126456e-03  -1.1329159354877338e-02 -1.5921866548151913e-02 8.3567774771320050e-03  -1.5031094102790838e-02 -1.5001951721247556e-02 6.4698943252522040e-03  -1.9919965160743916e-02 7.3808670087066632e-03 6.3432861116098551e-03  -1.8930104761210490e-02 -8.3802494289918657e-03 5.3882426415638009e-03  -1.7659661690344365e-02 -7.0938983159378266e-03 5.3063172647466574e-03  -1.6310291571492781e-02 -8.7993573417950947e-03 5.5951123738471262e-03  -1.7084790046420707e-02 -9.3115104188042225e-03 4.5472335520339077e-03  -2.7785899450341760e-02 1.1729381898581560e-02 -7.6608605672028544e-03  -2.9241802218764323e-02 4.3642563280566603e-03 -9.1466404684529753e-03  -1.7984323442657407e-02 -1.1083606679686286e-02 -4.4706727312227700e-03  -2.0397473119999066e-02 -8.1050899064143787e-03 -4.4443827881751772e-03  -1.9164457998258316e-02 1.3036868672996129e-02 8.4647991152068535e-04  -2.2534693043205812e-02 9.7178918337250866e-03 1.6967746587273521e-04  -2.0022854587807646e-02 1.0122368788884865e-02 -2.0073050787350639e-06  -1.9383869339053929e-02 1.2608843923763779e-02 -1.3189980116478392e-03  -2.3277596564462395e-02 5.9280384198328586e-03 -2.9283319610830280e-03  -2.2159886004568159e-02 5.7303265742377624e-03 -8.3554334494137343e-04  -2.2506164342632490e-02 1.5902021481769561e-03 -1.9709170932514881e-03  -2.0999823337289218e-02 5.4378782626923411e-03 -2.4981508824122233e-03  -1.9683001126296645e-02 -8.8646874061425341e-03 -3.1002642614105132e-03  -1.9069999690806694e-02 -6.0367454669853866e-03 -3.2179510161697016e-03  -1.8166273548620264e-02 -8.8770546567514316e-03 -3.2729797928561207e-03  -1.5879659972527532e-02 -1.3892405005396151e-02 4.9224450210913961e-03  -1.8167530663218519e-02 -1.3353186031764228e-02 6.1442120233841831e-03  -1.9076857513160825e-02 -1.0624699036425293e-02 2.7046105895467175e-03  -1.6947251403631524e-02 -2.4575847766855868e-02 7.8087092340128027e-03  -1.7744897987985050e-02 1.0730422789076988e-02 6.5935155509191665e-03  -1.5068984256095859e-02 9.4936975036341610e-03 6.7502266330894912e-03  -1.5825832721387861e-02 7.7384387068607386e-03 6.7446732083195028e-03  -1.6705202917471969e-02 9.4115198239579940e-03 5.1682664419113707e-03  -2.9504360192374061e-02 -1.0040771758436012e-02 2.3559908457560384e-04  -2.4584343148866299e-02 -1.0653860939834191e-02 4.6472595803469458e-04  -2.4357304886198992e-02 -9.4906599123249901e-03 -1.4588366403074703e-03  -2.5241423794420573e-02 -5.7865072214019304e-03 -5.1014256833830677e-03  -2.4298425543915224e-02 -8.1557450637881456e-03 -7.3653344464624185e-03  -1.8429326369432609e-02 -1.1853659242698128e-02 4.4420022317661475e-03  -2.1837460050420286e-02 -1.1098701495628929e-03 -9.9294564498748940e-03  -1.9180315849424017e-02 -6.3124082457278246e-03 -8.6461939672411656e-03  -2.1284353181383022e-02 -7.0933444265490631e-03 -1.0367328284830262e-02  -1.4958857851750707e-02 -1.2514916808889692e-02 6.5122888892073585e-03  -1.3916184690598635e-02 -1.2547594709916335e-02 5.2280497610313536e-03  -1.2353484090340946e-02 -1.2056185295271991e-02 6.6206659802297450e-03  -1.2372357217514261e-02 -1.3559247764854385e-02 5.5889571915153880e-03  -2.3322431219482874e-02 1.6595767892471826e-02 -1.0925353284248528e-02  -1.9670219977508743e-02 1.7882727632840545e-02 -1.3332922163280981e-02  -1.8563890800339555e-02 1.3328222457387011e-02 -1.0430072779510240e-02  -2.3349062250685223e-02 1.2740692893423684e-02 -1.3310382525460776e-02  -1.4901112259973863e-02 1.3818047138269875e-02 -2.6718340437705402e-03  -1.5797244726310722e-02 1.6532623518348753e-02 -3.9906178182600701e-03  -1.7724990109607004e-02 1.2681872634431041e-02 -2.7377062051059629e-03  -2.3599706756874901e-02 -9.1771590887817431e-03 7.2495997977886457e-03  -1.7268798680108780e-02 1.1645272874169428e-02 1.4118544759594406e-04  -1.7074142790451267e-02 1.1326894423128606e-02 -1.7399478507446606e-03  -1.5634894833405941e-02 1.3820392344789881e-02 -1.0304297580982754e-03  -2.2779431283275080e-02 6.4072134672189225e-03 -4.4380434753905178e-03  -2.3356183466127955e-02 1.2082261202276907e-02 7.8182305467443952e-03  -2.7991031096170363e-02 1.1232897120266561e-02 7.6816187845856494e-03  -1.3324917846720312e-02 -1.6507411121257060e-02 4.5784747050707500e-03  -2.0226052837604570e-02 1.1512002530878224e-02 6.0089689349983868e-03  -2.3034185599965479e-02 7.3777267726699266e-03 8.2867231479997628e-03  -1.9932855239771917e-02 1.0286902703615748e-02 8.1700879455264171e-03  -2.2011444791539863e-02 7.8415405682141781e-03 5.8364923652576986e-03  -2.4336758126439227e-02 5.9202098779008640e-03 2.5378918792720915e-04  -1.6398296638951863e-02 -1.0582358634305537e-02 -6.3794106380703043e-03  -1.4750141070103745e-02 -1.1146182512913888e-02 -5.1941769147469978e-03  -1.4357409975069112e-02 -9.5908104687916391e-03 -6.4826083044466553e-03  -1.5886722162595467e-02 -9.3580109081610602e-03 -5.3301512383755675e-03  -2.7259236439597750e-02 -1.3864635563728425e-02 -2.7594388275282190e-03  -2.3478313870375113e-02 1.3061696718191594e-02 1.3531758909683020e-02  -2.2559977042817106e-02 1.0694775523548871e-02 9.8650340154058710e-03  -2.5688315978230257e-02 7.3276391191821654e-03 1.3367147260007555e-02  -2.7137797731464158e-02 1.0844551124513262e-02 1.0336251565430891e-02  -1.6387611032621537e-02 -1.1773027291992260e-02 -2.0438378223415327e-03  -1.7802552386268204e-02 -1.0020040601451575e-02 -1.9490961791299509e-03  -1.6320671738600207e-02 -1.1467984692806316e-02 -3.0884788087227602e-03  -1.8697864299832775e-02 -1.2080668133965407e-02 -3.0648793001802187e-03  -2.2532831798622463e-02 -4.5986409016085406e-03 -1.3510963578777476e-03  -2.0885361728178765e-02 -6.9490179194678118e-03 -2.1689883756568261e-03  -2.3800774048472740e-02 -5.3446997157037077e-03 -2.8373602018826509e-03  -1.8923222416838980e-02 9.1551394335925330e-03 -6.1220370548033026e-04  -2.0848037079299338e-02 8.8477949590565590e-03 -2.0044043933560313e-03  -1.7646247690782844e-02 -5.6735640179701218e-03 -7.5089102522276846e-03  -1.8540042325293195e-02 -3.5729793214500302e-03 -7.6855829591654908e-03  -1.9938146895327555e-02 -5.3481982440717968e-03 8.9086130507876060e-03  -1.7774177516839077e-02 -7.0438249156310022e-03 7.9399128870621602e-03  -1.9924471777267933e-02 -8.1530004091518744e-03 7.6681765241826032e-03  -1.8862393825665194e-02 -5.1968756758161575e-03 6.7873392262262624e-03  -2.0697100641235588e-02 8.6563522963179415e-03 -3.6964580263426799e-03  -2.3257979335721813e-02 -6.3742769314915149e-03 7.4060607394360492e-04  -2.1292246093932723e-02 -5.2261458391060552e-03 6.0346825545335846e-04  -2.0926802557719806e-02 -7.9960702807418283e-03 -4.9931654349266155e-04  -1.6655307506765103e-02 -9.8567530504939816e-03 -4.2838168534875334e-03  -1.7091225895021728e-02 -7.6220438529975808e-03 -5.0063537422729166e-03  -1.9219976262801766e-02 9.0800895504139501e-03 -4.8444230034953122e-03  -1.8092678942941098e-02 7.5738442535028903e-03 -4.0926280952492972e-03  -2.1991935666240820e-02 1.4398915316893954e-03 -6.1920298431308064e-03  -1.7357897260293610e-02 7.4028601220531252e-03 5.4835932022429482e-03  -1.7348393557082401e-02 -1.0278543756732617e-02 2.8823548701076432e-03  -1.7987388773531492e-02 -1.0138700609459001e-02 1.0928667254998473e-03  -1.6060382802837878e-02 7.3795057283554538e-03 -6.5204405459386178e-03  -1.6898523939822097e-02 8.9336011319282871e-03 -4.8320405807386396e-03  -1.8480674315175531e-02 9.3688468141307664e-03 -6.4274607054261509e-03  -1.7459133404731601e-02 6.8318548330104714e-03 -5.2666444402539349e-03  -1.7579064380682359e-02 -1.0447763450543971e-02 6.6531391239601223e-03  -1.8889140663472088e-02 -1.4329562443415145e-02 8.2033392263272231e-03  -2.0371662963655980e-02 -1.0201847116249487e-02 6.3991292814808949e-03  -1.6570583907774602e-02 1.5706712096651504e-02 -1.9413636200247364e-03  -1.9596792235688547e-02 -1.4613730839715647e-03 -8.1255014220549017e-03  -1.9983961984654148e-02 -3.3379650612967216e-03 -6.3130493912525098e-03  -1.7257574258808705e-02 -2.3039251884416079e-03 -6.5372571950901449e-03  -1.5419072761778695e-02 -2.1322625504375917e-02 2.7367484653107749e-03  -2.2476472417459960e-02 -2.1335299315619609e-02 1.5683366068700484e-03  -1.7186264396332421e-02 -2.5673140164492455e-02 1.3040170948780195e-03  -1.7610440425515177e-02 -5.5737694510737609e-03 -5.3229719681855735e-03  -2.4520362051745254e-02 1.7577333439872195e-02 -8.9147605735467750e-03  -1.7757238404776447e-02 1.6767470272107395e-02 -8.2407181091968956e-03  -1.9207910126403011e-02 2.1832030407822878e-02 -1.0543754286697961e-02  -3.0614034808572711e-02 4.8690943815515074e-03 2.7134317835716699e-03  -1.7472405077389189e-02 -3.3447411750785341e-04 -6.5297030851551993e-03  -1.9755851276257747e-02 -9.0185159903467056e-04 4.4477488858883840e-03  -2.1020312509731808e-02 -2.9141924965328681e-03 5.2999064778657869e-03  -2.4470187763718034e-02 -1.2761003296366235e-02 3.3474909889476788e-03  -2.6063983676655994e-02 -1.5621371964625382e-02 6.2224693015000649e-03  -2.1796787181518035e-02 3.6477331600339100e-03 7.5106786545353138e-03  -1.9940834701620749e-02 1.7243554657143609e-03 6.8506980382384607e-03  -2.2801106033989767e-02 4.1176165076645590e-03 6.2910131567643982e-03  -2.7241841646204763e-02 -3.1367876625692250e-03 -3.8022569570128530e-03  -1.3920876860573637e-02 -1.9722288116014942e-02 1.3695088194430700e-03  -1.5720074771111744e-02 -1.5662576560883580e-02 1.4951061723019452e-03  -2.4723966012015125e-02 -1.4972300421991378e-02 -1.0054300989985318e-02  -2.1898107999750480e-02 -1.0355680671142294e-02 -8.4929063982573244e-03  -1.2709320598324761e-02 -1.4123819012267889e-02 4.7548846790342195e-03  -1.9599765117057119e-02 -1.0034161831347012e-03 6.7707804396149856e-03  -1.8866469783415968e-02 -1.0663289046820379e-03 5.4740317846516517e-03  