<?xml version="1.0"?>
<VTKFile type="UnstructuredGrid"  version="0.1"  >
<UnstructuredGrid>
<Piece  NumberOfPoints="560" NumberOfCells="2231">
<Points>
<DataArray  type="Float64"  NumberOfComponents="3"  format="ascii">-0.437270184892133 1.130513867865045 2.464959339784276  -0.1575558557429018 0.9844821026607427 2.300451209289574  -0.4996568060159496 1.207304284946449 2.211354531507026  -0.2218701063947696 1.271394036010528 2.376303590739145  -0.03213356612173944 1.488878780354482 0  -0.3070823851255919 1.60444108748354 0.2883595889737436  -0.04306337502264126 1.710823204504154 0  -0.2557335102430105 1.704794466024258 0  -1.365668187016484 0.9299040139860805 1.367410651434479  -1.201748691628636 1.207072052806315 1.289441114246246  -1.092520398536819 0.9703544734333222 1.276302537679984  -1.465055270517109 1.000012001635756 1.147846198214053  -0.2967726742171207 1.45008703957925 0.5524522132634159  -0.6434887749968319 1.482298065117458 0.3762371640162411  -0.4239378236407559 1.157590678344242 0.2544789876954237  -0.257779200723075 1.408996539962001 0.9003453641819071  -0.449287289247648 1.401735488301874 1.07854318826235  -0.3604156621198063 1.181682748976093 0.8516920471286565  -0.1567954956475845 1.268824098264383 1.086696983274594  -0.9847724872443645 0.7253991145725994 1.018214856799495  -1.194979136873971 0.9101429222428052 1.043890337845854  -1.097355000557124 0.7122318174845157 1.314876825740661  0.8776240038601382 1.468533760046266 1.693262756890803  0.9802711282238878 1.732890343021883 1.862459179955113  0.7730058713148853 1.843675930935447 1.893038983865374  0.74933335755538 1.547164680476453 2.062818974539214  0.9184226498440161 1.155749859749666 0.5990761661345709  0.9961579193758268 1.462281686930205 0.6246492917812876  0.7314204854759964 1.319570469529748 0.6591793876373161  1.077168197567472 1.22108614020189 0.7886821271081074  1.054936037662884 1.08774886345209 1.371195246126525  0.9558336858219978 1.133613571114183 1.140304209729167  0.7083532190588375 1.191059551730258 1.261319898859603  0.8622242424817076 1.383528502923412 1.39722733100139  0.6276565609536849 1.650471846478252 2.481014272479831  0.6982569277950104 1.512730450876753 2.683434601686926  0.386290996156984 1.626336376880996 2.680975028272746  0.4396671035871068 1.286801682662964 2.649254564270347  -1.064506829054958 0.7861841663411067 0.3270252259291584  -1.087239001855617 0.5563257064680588 0.4941250173552131  -0.9988230818911844 0.9111847969579145 0.7169703928595901  -1.298438048856282 0.7367059447332647 0.5584051522296656  -1.070836665993841 1.684482054550472 1.566742130239395  -1.149270546462357 1.310703286584161 1.538663817668312  -0.9291575857237597 1.369213819560088 1.657448002375269  -1.269036393401747 1.533357385860429 1.584097004581615  1.392011908179745 1.43243398909089 0.4493313746711375  1.21583844477272 1.577015814015864 0.3132095878859946  1.215838444772721 1.577015814015863 0.7984919644564699  -0.5417914275481509 1.915579932427804 1.976213206297545  -0.8661308487873942 1.793899593441225 2.139898547378747  -0.4825469010551162 1.604778739237976 2.248606286116285  -0.5675414029076532 1.907768762799528 2.310604154105008  -0.6172573039521845 1.527663012585014 0.7568115375211687  -0.7241902094970518 1.860249866829585 0.5970171058409584  -0.7957056313745388 1.831542656400152 0.968695686484855  -0.4952605943774011 1.929694906355637 0.9453922269623236  -0.4884387264115697 1.139099113654056 1.126544463557179  -0.3062210261879658 0.9470741498457549 1.074219080140319  -0.9147073268807377 1.484424848781805 0.7088302423512367  -0.8498613270000585 1.483589061793089 0.9802076404296851  -0.2853549673443926 1.700886913653027 1.104138889279388  -0.2123882240535232 1.482184289043645 1.225617616727049  -0.02658809131062503 1.54954966453752 0.9999642928133845  -0.05886255948931285 1.740941905347605 1.262820980185163  -0.2138865254896242 1.717515417693679 0.5093261615003483  -0.4978026593669764 1.928923779371535 0.3776131738685569  -0.4749235197066546 1.671109030984674 0.5112323363784802  0.5759691911674569 1.379913410543353 3  0.5772402525064116 1.668048186229646 2.797497383652546  -1.631177197183697 1.149842608431994 0.5529837297134703  -1.312281776542028 1.049838637110655 0.6975454133751749  -1.416175508879305 1.051966082818243 0.4695970894849926  -1.468611635051501 1.347929319029267 0.528793610027684  -0.3532137397153774 1.648140941155261 1.686515757151375  -0.5675414029076709 1.907768762799523 1.641822258490084  -0.5946428181805948 1.54027895207176 1.89110289129796  -0.6563813884835905 0.7487360351343193 0.2787263624334433  -0.5667951625134506 0.8222575507383968 0  -0.7393489966610659 0.6678195279580799 0  -0.8674026472112387 0.9845104035481604 0  0.06228957929729534 1.763069020072102 0.9047605796749927  -0.01962555268867489 1.676227591432309 0.6849834654445722  0.2664856022096764 1.97375345906389 0.6769169287588106  0.3465300909440658 1.724729685604465 0.7135143331565388  -0.1858556935836433 0.9816948119170279 2.090314465585877  -0.3754279745754614 0.9260804515698235 2.013272307849831  -0.465967646250635 0.8793631927405553 2.363944234338541  0.5280529490250396 0.8461779070287594 1.879649787229252  0.7585124449030545 0.6444687987127938 1.617029807396295  0.500529746322371 0.8608893653703668 1.650796209957878  0.7030633448670989 1.021784321691119 1.759469098116709  -1.088686500193924 1.228593341630049 0.8863724562223012  -0.8254687922103758 1.236073256804179 0.6182246954994589  -0.07422757993891599 1.99268922148401 1.807460490734439  -0.04088525360617973 1.611212491846854 1.799941109133811  -0.2916418845632132 1.971275781511641 1.626758869038753  1.031766936443343 1.348283730697958 2.231342139160024  0.5985916833979833 1.188865338374242 2.184453435212432  0.800035887802124 1.513475040829179 2.352763204437822  -1.454001653846959 1.365731632635776 1.144642798574309  -1.606093854539396 1.180406749877606 1.250643688654142  0.759913133020082 1.035194937356971 2.333082585620538  0.7866876774335634 1.247079743530873 2.481715775958462  -0.5993538927977279 1.671856462584716 0.2274587724711168  -0.3970022116813246 1.959501260883113 0  -0.615292376451025 1.893283663336124 0  -0.0115970006368884 1.619661669778449 0.3674377621007673  -1.550860895813692 0.7743665571272234 0.6777793944735439  -0.6182587514821932 1.165370958219697 2.665290015038481  -0.7320725407980028 1.004497893960526 2.803796425403525  -0.7524293328985826 1.294280350741342 3  -0.9007277826353122 1.175814812694896 2.78884082742388  1.217261294322629 1.239502799576163 0.548585554698337  0.5398556083925942 1.108033836437006 2.451290255513662  -1.184565319612744 1.293675404619523 0.2202905124775362  -1.215838444772743 1.577015814015845 0  -1.392171882639736 1.432302701444501 0  -1.304005163706239 1.504659257730173 0.3254551914054048  -1.613044292607511 1.171937616587227 0.2971828751737157  -1.07715122928555 1.023555929625641 1.577076441888355  0.06419369235251568 1.225727509717291 2.453663304648281  -0.142574953272563 1.324806371060606 2.664518380891937  0.1481648227724792 1.271966546074806 2.72659392302712  0.1383367287699395 1.48654129520398 2.510062434088135  -1.501397742985334 0.8632673176568763 0.9405261858769782  -1.573174139018967 1.220519539300602 1.043890337845853  -1.305770183688084 1.16074792136184 1.039247410740563  1.127012452169609 1.649913422219541 1.695878052335813  1.008490171445048 1.717806950174296 1.461210836656988  -0.7494591463662317 1.613341355000463 0.5618157337620006  0.5251954187041239 1.502210039554575 0.3672943657036651  0.4169176159719862 1.268399547679171 0.4595456322107094  0.3514414906492516 1.417214237308218 0.2032825020734149  0.4424104725296565 1.133702607012028 0.2226731490322834  -1.00193631029461 1.481942181374718 2.75782293884803  -0.9854046110177546 1.73014643930235 2.523996521787849  -1.169012044660419 1.615445247438886 2.628292977551654  -0.985404611017755 1.73014643930235 2.73258943331546  0.6052985902680665 1.595631930509519 0.6450910128899614  0.7910476264195203 1.834032411919922 0.5388597629756304  0.6152923764509963 1.893283663336133 0.372472755438345  0.6152923764509992 1.893283663336132 0.705246770512919  -0.3062657882747472 1.648452071402617 0.8304665595928332  -0.4855865343507064 1.932629500381754 0.6286242734478376  0.7054437928571102 0.7084715604379123 1.933662416831976  -1.507328219677138 1.300753024164202 2.713336764402187  -1.165230715369792 1.205390575913933 2.689956132617993  -1.353416411825071 1.464108494370675 2.657241558346083  -1.436824986212379 1.386661462706364 3  -0.4979902395803728 1.678489304391771 3  -0.3963861489300569 1.651359416569772 2.700919976322254  -0.6185480316536364 1.683538496070085 2.764379096909264  -0.458396320522803 1.940877561573022 3  0.9530377358237719 0.9485576382829037 2.633905012019921  0.7356486580402359 1.003585213642121 2.784331418652878  0.7327145285287133 0.9602672604058995 0.9486177248287717  0.5344025260205703 0.8427839874160714 0.7878723257084586  0.4277494794611242 0.8997912284851736 1.035565639850067  0.6275104760499441 1.204798490702922 0.9921227376697574  -0.8902940105440038 0.9268628400035885 0.4731239699058822  -0.9776546061793429 1.008446268592044 0.2385980248694552  -1.156033771372998 1.098512560732226 0.3961799307077474  -0.7036434369288257 1.316482796637038 1.765323971810743  -0.7896227738217378 1.26606967100422 2.000569561053651  -0.9671165878588903 1.182630135800516 1.832231915196073  -0.6810565915542988 1.016669733136022 1.936667150823691  0.4373821781832744 1.172013029441896 1.175775162288291  0.5012785776910673 1.390458179553204 1.314161706832298  0.2714158791222486 1.659971775591717 1.705214535700857  0.4591243388667474 1.694941713426531 1.523356646315397  0.2496342166345127 1.9754131756777 1.610848910284687  0.4883261183152516 1.931798456671645 1.804979252832438  0.1713655010773994 1.239539359313271 0.830658565227589  0.206312465890568 1.511600485836241 0.8856669166948175  0.2493015756192 1.322778751398718 1.062429438019509  0.4184073581581774 1.215358561019962 0.728034
[...]
<PointData  Vectors="f_18"> 
<DataArray  type="Float64"  Name="f_18"  NumberOfComponents="3" format="ascii">-1.9792477945725345e-02 4.9624785147462436e-02 -1.5006218073059532e-02  -9.9664572942885724e-03 6.0413379874222725e-02 -1.4922012877218834e-02  -2.0607539838014267e-02 4.8137539281755841e-02 -1.0459116820083566e-02  -9.5509509449307056e-03 5.1237320464000820e-02 -1.2997614649585995e-02  -1.7411817042733179e-03 4.1330130964357163e-02 1.8088304807551817e-02  -8.6937609311499176e-03 4.1846765795964885e-02 1.3484366735638034e-02  -1.6551101283673268e-03 3.8354280074855036e-02 1.5706659934474929e-02  -6.2191365410982002e-03 3.7840018186372178e-02 1.5509111412080194e-02  -3.9054712207382949e-02 2.6568261684202076e-02 1.7144125175107352e-03  -3.2812024447510593e-02 3.2858062008464257e-02 2.6991750155612483e-03  -3.7643091674205452e-02 3.3454279550428428e-02 3.3746338144352789e-03  -3.7068678050193392e-02 2.5190087451897714e-02 4.0832492868887391e-03  -1.0120922581935317e-02 4.6187032272394714e-02 1.2089999712216618e-02  -1.7653890264553499e-02 4.0158707667535855e-02 1.2832804258634195e-02  -1.7813016428004220e-02 4.7196039717699853e-02 1.8810871606743804e-02  -9.6645098033521747e-03 4.9342830611849110e-02 8.2547854224354310e-03  -1.5862168976895137e-02 4.7399246611250341e-02 5.5981474202421253e-03  -1.6465936824548374e-02 5.2330922629110196e-02 1.0131103285289884e-02  -7.5404914994731745e-03 5.3528235155472267e-02 6.3739565950728305e-03  -4.4708238600457327e-02 3.2996736509632661e-02 7.6645139328974108e-03  -3.9003806987645370e-02 2.9714032702455651e-02 6.3391831547411114e-03  -4.5094255276387593e-02 2.9192556509235374e-02 2.9405130099189351e-03  2.2666926724565464e-02 3.9466895301859102e-02 -2.1510377930926703e-03  1.9961102136127375e-02 3.6547352764426104e-02 -3.4089283140536506e-03  1.5398450720692599e-02 3.8661346060130559e-02 -3.9866092795995270e-03  1.8930104901186601e-02 4.0552719311710041e-02 -6.4360977397938616e-03  2.8749087279273212e-02 3.7217343699259567e-02 1.1501641653622864e-02  2.3003765969861520e-02 3.5786716217811446e-02 9.3357909650847951e-03  2.2010427330350680e-02 4.1162254014602787e-02 1.0610336051186699e-02  2.9481910054132861e-02 3.4475724552352913e-02 8.2141048436622406e-03  3.3119246132698031e-02 3.5462366457073728e-02 1.3456962955404161e-03  3.0868993697869225e-02 3.7866773371790327e-02 4.5567514449142230e-03  2.5675911795028261e-02 4.4525619037234121e-02 3.3563986360354106e-03  2.4199005331836068e-02 4.0378946686764589e-02 1.3939287506327547e-03  1.4448011961700608e-02 3.9579601464989705e-02 -1.0339649063781372e-02  1.6892775858231228e-02 3.8158848449299648e-02 -1.3070570234143203e-02  9.0954078154612799e-03 4.1156370110401984e-02 -1.2981584891164464e-02  1.4894274256639231e-02 4.5503676853788207e-02 -1.5810421752916637e-02  -3.9456844412424030e-02 2.9161375357290412e-02 1.6841442053796885e-02  -4.7200609343393915e-02 2.4419703130874177e-02 1.5978277217635103e-02  -3.7909382080648819e-02 3.4380574744750182e-02 1.1412380610775361e-02  -4.1033849705565784e-02 2.3345948225289039e-02 1.2169644381722989e-02  -2.3177595044195459e-02 3.5983940881308935e-02 -3.6329604309819687e-04  -3.0503634182192992e-02 3.4443553214349221e-02 -1.0613147495744271e-04  -2.6885900183403932e-02 3.8872230053642980e-02 -1.7022344381909058e-03  -2.7491880286546543e-02 3.2799922996690226e-02 -8.2945520069868900e-04  2.6104797626545332e-02 2.8367900982203469e-02 9.2394909311321379e-03  2.2070330486892619e-02 3.0010821144515629e-02 1.0509989001255807e-02  2.4048079708092897e-02 3.2498358361532871e-02 6.6028468661216439e-03  -1.1706479334040929e-02 4.0358811535552548e-02 -4.2820801403348234e-03  -1.8304732006446660e-02 3.6915591304671827e-02 -5.8304762793521432e-03  -1.3146023658773138e-02 4.3333348883045311e-02 -8.3312330191578979e-03  -1.1852046677389594e-02 3.8850146331891294e-02 -7.4500505816611712e-03  -1.7321322276352594e-02 4.2432866629148747e-02 8.8168876259748057e-03  -1.4972490221914089e-02 3.7480978491996088e-02 8.5063572299540393e-03  -1.7251253351035653e-02 3.8200916436874011e-02 5.1043468660310915e-03  -1.0977632888208686e-02 4.0301185299807064e-02 5.3893845525570519e-03  -2.2002843779230171e-02 5.0613939634509081e-02 5.8308068596701285e-03  -2.0304070469637541e-02 6.0004130422673489e-02 7.7845643544166322e-03  -2.3253225295267077e-02 3.7427716573168381e-02 8.7905609757888293e-03  -2.3252328003120909e-02 3.9337266199085646e-02 5.8932857214628155e-03  -7.8228141230353970e-03 4.5013370352584167e-02 4.4782992678308398e-03  -7.7118846198947480e-03 4.9123956501316901e-02 3.5449333921569255e-03  -1.4869348643227539e-03 4.7997158152149562e-02 6.4292317293934732e-03  -2.2852205261537934e-03 4.5396546039735926e-02 3.0350834166405056e-03  -6.1323828995364042e-03 4.2687411622937779e-02 1.0900099144974629e-02  -1.0303830215246603e-02 3.7372009424715531e-02 1.0110783322638614e-02  -1.2068457897985803e-02 4.1129808110808949e-02 1.0936956185572090e-02  1.5069901569205429e-02 3.7944648476336364e-02 -1.7984866172178007e-02  1.2455712285460338e-02 3.7518840107849512e-02 -1.3326331726177762e-02  -3.2830067084415097e-02 2.3045020520438764e-02 8.9374783583618268e-03  -3.5179069898748472e-02 2.8164770003208668e-02 9.2915775369809221e-03  -3.4219844661613368e-02 2.5252384174348462e-02 1.1133868256703759e-02  -2.9592334107079395e-02 2.6943634711184071e-02 9.0217264555393518e-03  -1.0171749009887843e-02 4.5129358218879284e-02 -2.2894355813755530e-03  -1.2547751456483494e-02 4.0459948369652603e-02 -1.1300244272512468e-03  -1.7112179463472991e-02 4.3374399198419684e-02 -4.6073309603293384e-03  -3.8627664687097919e-02 4.3259464233247634e-02 2.2964701469330231e-02  -3.0646625901065868e-02 4.3674841185972306e-02 2.7672919762599932e-02  -3.9580873203738542e-02 3.5835160784562163e-02 2.7585895174586792e-02  -3.0105838356901927e-02 3.3736640301778600e-02 2.0856529271236799e-02  1.1292482974506490e-03 4.4697773510617586e-02 6.4009308437442836e-03  -1.6134592774256576e-03 4.4815851330314724e-02 9.2524577780559204e-03  4.6070077490487169e-03 4.0398727519138575e-02 7.4396491796646091e-03  7.5368735789648504e-03 4.2630175446323387e-02 8.4769545335501191e-03  -1.2211769487487869e-02 6.1307871932129249e-02 -1.1098714558941573e-02  -2.3870630402530124e-02 5.8262447493171401e-02 -9.3251955279774461e-03  -2.8426050070599066e-02 5.3687034956328608e-02 -1.5950562654501631e-02  3.2751713886761978e-02 5.3103754308964961e-02 -7.2152880271705074e-03  4.7284991873908687e-02 4.1070615497765563e-02 -2.4192891910102140e-03  3.0902655615511872e-02 5.4219651524361111e-02 -2.9639247271803248e-03  3.0018210473342039e-02 4.5415129008415364e-02 -4.0493128096651589e-03  -3.0993387186283198e-02 3.4480506219249432e-02 7.2975006119411732e-03  -2.6750360446307121e-02 3.9582396770821655e-02 1.1456919026779247e-02  -2.1683645280742674e-03 4.1983619669153295e-02 -2.8022389813438138e-03  -1.6926486433001047e-03 4.7639888859544434e-02 -3.3612421813130036e-03  -6.8565901183464230e-03 4.1896245476415149e-02 -1.1870964882821815e-03  2.6311361598608137e-02 3.5512576190477145e-02 -8.3406905576347973e-03  2.2341381486581702e-02 4.6003065576721416e-02 -9.9783307777954033e-03  1.9707586006358392e-02 3.8699640418073548e-02 -9.5976011369909020e-03  -3.0929444443913368e-02 2.8482247303014657e-02 3.3453767358080752e-03  -3.4163304971327614e-02 2.4911114406481447e-02 2.6219944804315352e-03  3.0124017508470873e-02 4.2187627677174433e-02 -1.2718663468151552e-02  2.4574739767402785e-02 3.9873143083688556e-02 -1.2611682409579507e-02  -1.4081532915974642e-02 3.7578575510296371e-02 1.3087293011745951e-02  -7.6730366312275479e-03 3.4646201478066851e-02 1.3170027308207353e-02  -1.1514988517729965e-02 3.3759197634661266e-02 1.3421038888284787e-02  -1.0408573366852312e-03 4.3593908385689335e-02 1.2986800575978133e-02  -3.9416314187799402e-02 1.9553204332331982e-02 9.3108880070246151e-03  -2.3253432418489341e-02 4.3241320222884995e-02 -1.6166450702708529e-02  -2.9238116476633439e-02 3.9956687418671692e-02 -1.9258891402575945e-02  -2.0876069032153652e-02 3.5668672823202949e-02 -1.7788589814402570e-02  -2.7023567702173901e-02 3.5103420141526405e-02 -1.5627338852189393e-02  2.9098092080195898e-02 3.0917865136301133e-02 1.0300280840260759e-02  2.2178770488406441e-02 4.7403895917300626e-02 -1.4880744976144354e-02  -2.7502087080990476e-02 2.9594100198107563e-02 1.3397501100906151e-02  -2.2218931900128407e-02 2.8224242426703905e-02 1.3409024662655623e-02  -2.5122876310344891e-02 2.5633140861597070e-02 1.3564777437090961e-02  -2.5211445254918675e-02 2.8983200260686647e-02 1.0694550703417799e-02  -3.1077810676541050e-02 2.2193261196384387e-02 1.1049056915526590e-02  -3.6240302095373080e-02 3.4397086982025753e-02 -9.2439559780834422e-04  2.2871881679120236e-03 5.2984951113202561e-02 -1.4838099711474016e-02  -5.6560649217718539e-03 4.8553330933060933e-02 -1.6308856459188944e-02  5.2695502091056317e-03 4.9201625482535705e-02 -1.7773618969845466e-02  3.6415858554348329e-03 4.6140025473993956e-02 -1.2843378783569614e-02  -3.8935060101841862e-02 2.2330032112099368e-02 6.3013612868818127e-03  -3.2943225407323314e-02 2.5522377394503352e-02 4.4846009547426730e-03  -3.3759565051880727e-02 2.9623390888800998e-02 5.3160736102673993e-03  2.3036392262025859e-02 3.4880700195113898e-02 -1.8919106089783336e-03  2.0640446561911177e-02 3.6598657026299317e-02 3.1234826972007760e-04  -1.8383114014615787e-02 3.8748103177832442e-02 9.9774517770757545e-03  1.3599813987451612e-02 4.1514361159090483e-02 1.3280067730292533e-02  1.4678667861772739e-02 4.7346904856238256e-02 1.4715035243497815e-02  9.9034004747906440e-03 4.3456162398411380e-02 1.6266478424708131e-02  1.7290480878893778e-02 4.6777221466266304e-02 1.9515036520396857e-02  -2.2572818269046811e-02 3.2935051188242782e-02 -1.2459000266288009e-02  -1.9714735747393353e-02 3.4328298222410555e-02 -8.9939297304722880e-03  -2.2914845744143323e-02 3.1158473241528425e-02 -9.8111969475482702e-03  -1.8881552972031965e-02 3.2932841413958518e-02 -1.0801907877511528e-02  1.4827369476007799e-02 4.0958292058027888e-02 9.3959551951602657e-03  1.4912619271397915e-02 3.6427845619538247e-02 8.6323596383970219e-03  1.1084560686276659e-02 3.6693073526162197e-02 1.0096694572666043e-02  1.1571872579824343e-02 3.8637207090217021e-02 7.0611279049473718e-03  -9.0170865567785509e-03 4.4409614002237710e-02 7.8944438748732946e-03  -1.0459229176941476e-02 3.9364360460608670e-02 7.9126436648719375e-03  4.3338364496823358e-02 4.4767881884478909e-02 -7.8428787011303042e-03  -2.8947878527719562e-02 2.4820277044919313e-02 -1.0579964451682376e-02  -2.9398280413317823e-02 3.0203462602613865e-02 -1.2915163273075070e-02  -2.6307901493615220e-02 2.8107775642977065e-02 -1.0173757839537466e-02  -2.5649759511940970e-02 2.4762227279668009e-02 -1.2944756019206432e-02  -1.1115780205793718e-02 3.6440182631875165e-02 -1.5198849056593230e-02  -1.0301689331289429e-02 4.0454501493695817e-02 -1.2788493624942467e-02  -1.4094899049109785e-02 3.7193928593883069e-02 -1.2740168945513164e-02  -8.4807656563872600e-03 3.4559896965165045e-02 -1.3217019312778069e-02  3.3708668930296073e-02 3.4456105110099680e-02 -1.5665599569376111e-02  2.8403096307845752e-02 4.0064330699892022e-02 -1.9295112370537978e-02  3.2508905564150641e-02 4.4217832305795755e-02 8.7544250330818130e-03  3.1337266152076056e-02 5.2215666578153713e-02 1.3357379950601425e-02  2.5735284574100958e-02 5.7369208268002139e-02 9.0530696986253125e-03  2.2544274460392994e-02 4.6283732876451010e-02 7.2402693828244862e-03  -3.5765151889810831e-02 3.6832484958693144e-02 1.5179309992285041e-02  -3.2345312538235471e-02 3.3121519620550467e-02 1.6697941374370480e-02  -3.2331529159907842e-02 3.0395300124379084e-02 1.3073266711392924e-02  -2.3827367378140389e-02 4.3714547543464329e-02 -3.3845797225843747e-03  -2.6309222080820437e-02 4.1537912518283156e-02 -6.3649122326711431e-03  -3.1206908930208277e-02 3.7733081139262575e-02 -4.3187871143082323e-03  -3.1238932825261394e-02 4.6184316801549087e-02 -7.2144398350062686e-03  1.8340992522217891e-02 5.1530103028527535e-02 5.2709846064679057e-03  1.6259216527048558e-02 4.6890829460188140e-02 2.5188216317766484e-03  6.7712209883184831e-03 4.5835328949040799e-02 -2.5423624777642052e-03  1.1174739068353638e-02 4.3727060714820840e-02 -2.7728538340466414e-04  4.8752856204753916e-03 4.2270374692651699e-02 -1.0554545351877229e-03  9.7492668820089272e-03 4.0879352065281309e-02 -2.9845812919079627e-03  6.5091888870275954e-03 5.3553875545531121e-02 1.0521498457029379e-02  5.6593610234526399e-03 4.7776916577992039e-02 8.0041062672198300e-03  9.0612469841143389e-03 5.1452237855747769e-02 6.3613803977455871e-03  1.5968847717025680e-02 4.9722136911604591e-02 1.1605353149537310e-02  1.3506582162341562e-02 4.4617349025375175e-02 6.7374975578223398e-03  2.2183546573771726e-02 5.5556476821024832e-02 1.7513004814489277e-02  1.1027736689686998e-02 5.7326464650739498e-02 2.1149093777129903e-02  2.3235228694690090e-02 5.2184877227058689e-02 2.2500049969351153e-02  -2.6115240317226951e-02 4.5055226337042370e-02 8.5968560594177970e-03  -3.5727348842090355e-02 3.9285648642770114e-02 6.9698081059727645e-03  -2.8631519422714628e-02 3.9954768303379150e-02 4.1257407469587597e-03  -2.0850810161736014e-02 3.9492850218629867e-02 -6.0736081772187634e-03  -2.5788723582562182e-02 3.6574064655256533e-02 -4.8425963803216069e-03  1.1658578571825350e-02 4.3493288958124238e-02 -5.2161536643554563e-03  8.5895615038038865e-03 4.1778551056958796e-02 -9.9111880390903712e-03  1.4017337286206145e-02 4.4025726118088436e-02 -9.8619701478908188e-03  9.3938688659863535e-03 4.0620801333571717e-02 -5.8483912352406912e-03  -2.7562756043013392e-02 3.0669196738227066e-02 7.1219063982810261e-03  -2.7627766648121447e-02 3.5341738992189890e-02 4.4596121124871211e-03  4.2106835545600929e-03 3.5031431231789756e-02 1.3158648600675681e-02  2.2249175746263169e-04 3.5579247927079533e-02 1.3391145390537595e-02  3.7274375085970170e-03 4.0190448605866583e-02 1.3662136655139216e-02  -1.0447353192737695e-03 4.0502714964011650e-02 7.7570500268330815e-03  1.7109411090294451e-03 4.1302563031449906e-02 6.4195640738004735e-03  -6.2267409505953695e-03 3.9019590700022234e-02 9.3990632706272455e-03  -5.8957997654724347e-03 4.0376365915352111e-02 7.1167848724076870e-03  2.1174616700742853e-02 3.5223536790800210e-02 -5.6722417990207209e-03  1.4736954619995071e-02 3.7385164451445629e-02 -7.3051536635231331e-03  1.7985326236120588e-02 3.5158691714348822e-02 -8.7382144756775592e-03  -2.2827154118470250e-02 2.7334723988981291e-02 -1.3058099933756801e-02  -1.9667107807409840e-02 2.9802234814253290e-02 -1.3030117008893260e-02  -1.9852378996911387e-02 3.6630296628786981e-02 1.7770535282804981e-02  -1.4624089909326538e-02 3.5737688252158235e-02 1.5734314303103208e-02  -1.9402597115177150e-02 3.5388856482358733e-02 1.2835498421156933e-02  -1.8302634413715968e-03 4.1669521927405945e-02 5.5234208108031297e-03  -2.8213879001298861e-02 3.3286453667328124e-02 1.0025014474804559e-02  -2.2577610588719210e-02 3.2607003672373527e-02 9.1979895047656149e-03  4.0072821628087840e-04 4.8608156265527648e-02 -6.7043700693131206e-03  4.0964179559475457e-03 4.4927219138295456e-02 -5.1795061743535910e-03  -2.1827786250073603e-03 4.4620162248297485e-02 -6.3713258425182320e-03  5.0532893300476757e-03 4.4621118427720673e-02 -8.2839990251047935e-03  -3.6469808166527291e-03 5.2478422936514876e-02 1.0956017430306043e-02  2.2303541971624950e-02 3.1877971302192644e-02 -9.0507897260540364e-03  2.2875339205575038e-02 3.4991574105560433e-02 -1.1068935649442436e-02  -3.2990319728343691e-03 4.9924655872474237e-02 9.0105208757302799e-04  -6.2559764521009850e-03 4.4461776080896701e-02 4.2043151202811503e-04  7.7147089361049388e-05 4.5932406158343590e-02 1.4420364770992766e-04  -3.0745200625327863e-02 4.4935398488879084e-02 1.4007233164756681e-02  -5.2670593683783365e-02 3.5593320123055293e-02 -1.1903069976563262e-03  -4.7684925953339133e-02 4.1091001332965650e-02 3.5925536939519741e-03  -4.4598848850562353e-02 3.0179012407737880e-02 -1.7155726776441674e-03  -3.8688249478584853e-02 3.9313886273785757e-02 -2.3852593889330475e-03  -1.3537636356873283e-02 5.1934825327748305e-02 2.1802368090631337e-03  1.5846467449451253e-02 5.0233149721083593e-02 2.8038979432348659e-02  -1.6027301712116544e-02 4.1495722102690695e-02 -1.5429892083816414e-02  -1.5442112301157140e-02 3.5279296542623670e-02 -1.5607623301781517e-02  -1.1867438592911100e-02 3.8709754067990834e-02 -1.6784005061321165e-02  1.7904015357517293e-03 4.0070125527360695e-02 -8.1118931500413754e-03  6.1560451547445338e-03 3.8825252850740899e-02 -9.0783125223294278e-03  -8.2677314209046327e-03 5.4734339890874929e-02 -7.2943918473186995e-03  -7.3328648847829098e-03 6.2655731997841232e-02 -2.9529366009726898e-03  -2.3123522589649174e-02 5.8933987012876166e-02 -4.3873058215230286e-03  -9.9277498828735551e-03 5.2201543844923801e-02 -2.7596796066889531e-03  8.1350177532158799e-03 6.2869892667624744e-02 2.0621380804608431e-03  4.5703177298442917e-03 5.3841559342827396e-02 2.7841096660184052e-03  -1.2915566262916411e-03 5.5234247376586582e-02 -9.9588613047833763e-04  9.1321306188930310e-03 5.1411754084097767e-02 -1.4453315686417266e-03  3.4990772551723177e-02 3.8291206956346205e-02 1.1687097583035664e-02  2.6832158284185257e-02 4.5631321868834625e-02 1.4150631214893190e-02  3.6122004716915068e-02 4.7012070650573619e-02 1.7995192623360502e-02  6.5518738117412104e-03 3.9048645221877142e-02 -1.6605933165637854e-02  -3.1546162765495100e-02 2.5409557988962876e-02 1.3305941052872285e-02  1.2011118022070130e-02 5.8517722552193507e-02 -1.8139652261603655e-02  7.9968858375055671e-03 6.0786038848031257e-02 -1.3220730772329256e-02  1.1872257617062586e-02 5.0494325709796839e-02 -1.2402589892757221e-02  2.3431064279103391e-02 5.6103837626804251e-02 -1.5005208855816051e-02  1.9577872487407152e-02 3.9142719853101575e-02 7.6393391598703125e-03  1.6279880305832026e-02 4.0939078708445577e-02 4.5063545109106035e-03  1.3668769470694704e-02 3.9139962028683709e-02 5.1823992032422805e-03  1.4706530629823425e-02 3.4517116514038368e-02 1.0740506967544543e-02  1.8821296450036534e-02 3.6347745453152482e-02 1.3105936715089783e-02  2.5630743147175936e-02 4.1492098005746207e-02 -5.2247718781506880e-03  3.0145660830580363e-02 3.4583076688880394e-02 -1.4630377013630819e-03  2.2613297218015735e-02 4.4324866848147959e-02 -2.3433127585795461e-03  -3.5194390545670362e-02 2.3744300936133573e-02 2.9508621286777268e-04  -3.1317284546990953e-02 2.9127241527234015e-02 7.5156388529294118e-04  -3.4521962609182270e-02 2.9421085188682219e-02 -3.3042502596387886e-04  -2.4728120073868463e-02 3.4789601369059044e-02 1.3003581914125973e-02  -8.2798121389078376e-03 3.8879146524253401e-02 -8.5924750499164013e-03  -5.6646934385986142e-03 4.4645262212682696e-02 -9.9426023354971058e-03  -5.7612970276341739e-03 4.0927937025219546e-02 -5.9848837596826335e-03  5.9767088142046853e-03 4.6230359155715703e-02 1.5868791397295099e-03  -2.2802279500808856e-03 3.9557243408153107e-02 1.3039737667029438e-02  -6.1292364841046545e-03 3.7304664756037470e-02 1.1219142809318105e-02  2.2970840568924848e-02 3.1676860215157157e-02 1.6765177058472358e-02  2.3112503662408995e-02 3.1146719314301751e-02 1.3171394689066118e-02  2.5916259684643787e-02 3.4238439137915661e-02 1.2804309090280783e-02  2.9577160450884106e-02 2.9805074624063149e-02 1.4674592736455060e-02  -2.0522369456103390e-02 4.6919566173066023e-02 1.4381347312909049e-02  -7.4211925957032984e-03 4.8569350017186735e-02 1.7398780427151959e-02  -1.1113229086056282e-02 5.2664408507011547e-02 1.5350747854304413e-02  -2.0232783698088858e-02 3.7661072061458266e-02 -1.2915834282947090e-02  -1.6187248140579199e-02 3.1780632296558302e-02 -1.2952725948891635e-02  -2.6018020369132440e-03 4.2167375805960701e-02 -1.3319455984776208e-02  -3.0291417784924338e-02 4.4816899916607811e-02 -2.3767909674321554e-03  -2.0832977650236097e-02 4.9579635122998351e-02 -5.4696696449214417e-03  3.5756809395132892e-02 4.1751390038148324e-02 3.3478991916072566e-03  3.25