<?xml version="1.0"?>
<VTKFile type="UnstructuredGrid"  version="0.1"  >
<UnstructuredGrid>
<Piece  NumberOfPoints="370" NumberOfCells="1211">
<Points>
<DataArray  type="Float64"  NumberOfComponents="3"  format="ascii">0.6305366219362482 1.461672021701259 2.573137157518678  0.3505506524007391 1.439119323266543 2.229124975212371  0.7233515360664949 1.860504275633375 2.143566592013062  1.16929327003969 1.615214451734676 2.02523850809439  1.962734657692562 0.3783613699999914 1.846559366820982  1.91926574085063 0.5296409455353088 2.339697577168066  1.745217422811993 0.9572087840349652 2.004132439917261  1.399310647126385 0.4861101870387526 1.965101941806065  1.491481428815471 -0.04246098436356954 1.192857642755402  1.240992448073932 -0.7277991002123511 1.504890969845327  1.451841918673485 -0.4160870690660196 0.8124817833527678  1.957241061154269 -0.4044530916512841 1.130662055155801  0.850549934291718 1.02575904982513 0.5353204991820871  0.9958825989361937 1.724545838077586 0  0.79119686240752 1.833952643622452 0.6008470958115142  1.190141907336148 1.598104417287793 0.790786027167462  0.1466855526147347 -1.464880016853866 2.2297974104337  0.03653064831300958 -1.996402045182105 2.459535282061257  0.4182078247438861 -1.953068608486724 2.399152904188485  0.3606546971297125 -1.571158736162652 2.586357545217903  0.9545290653659886 -0.2816454632327977 0.6694471130563237  1.285895848641168 -0.9157810167207565 0.4484794291144768  1.191933442830757 -0.8743164676129442 0.903733845483468  -0.04369448314686741 -1.9956964690359 2.079055695557334  -0.08831675386205026 -1.592209287680673 2.5786718043508  -0.4597234839101871 -1.940474970960854 2.365577208844509  0.8599034339052349 -0.5023742943566752 3  1.339634282624336 -0.7964456803802702 2.547452680787598  1.468057415404991 -0.2920147759474656 3  1.371659700543215 -0.6077316139648379 3  1.512588052516405 -0.2740719184538642 1.754192008279186  0.9893257645081893 0.1083773317058151 1.785271323260748  0.9756404903825265 -0.2120504217921436 1.431575385960868  0.9545290653659886 -0.2816454632327976 2.01543266745928  -0.6813513412608918 1.373329703138566 1.700767684044582  -1.111645100464135 1.018766509541888 1.580900689761718  -1.059542960476273 1.69051866591576 1.998542381954114  -1.170945775598536 1.613858275470806 1.514352004916045  1.52494138948322 -1.279291314658712 0.6173649490931152  1.669784403879814 -1.098334036361089 0  1.779059765191092 -0.8938942146969459 0.5606628110678626  0.1821743391565473 1.595435930750562 2.5903667231274  -0.1879604925798806 1.981487507310104 2.257437501874302  -0.4179722159358051 1.953140079637284 3  0.04335340489247286 1.995730062311829 3  0.708221843788238 -1.311703949689869 1.769051025256928  0.7911968624075247 -1.83395264362245 1.495263286014477  0.477219149204427 -1.935167718916343 1.889112662052278  0.2683758495222019 -1.490673620404064 1.475667784107566  0.9025541663092692 0.4225803863622857 0  1.135486067825821 0.947534454009326 0  0.6021968632248157 0.7932041258053155 0  0.9827995192597104 0.1746394117049448 2.234570310665951  1.323841507958512 0.4889974985894576 2.488428520580235  0.9025541663092692 0.4225803863622857 3  0.9955658339392071 -0.04502084354218341 3  -1.126481124092755 -0.9473283376278889 2.074233125962432  -1.664006297246322 -1.10914411354164 1.875888952633512  -1.294582432735519 -0.820629184485212 1.551364336100787  -1.312762776967178 -1.497472070268641 1.943469646961802  0.9807852804032303 0.1950903220161286 1.006853791166158  0.8534608015375593 0.5144276117421314 1.633723584493013  1.430264222105482 0.4050405554365119 1.451769552081978  -0.7740713825566979 -0.6255101783274258 3  -0.9807852804032304 -0.1950903220161286 3  -0.8836349378529437 -0.457975773256652 2.310914062613334  -1.344567555190213 -0.6983284766763056 2.512258555473228  -0.5131581223052614 1.382860631703773 1.129235146161471  -0.02829600397680024 0.9972130868589251 1.611363293353632  0.06779261740588695 1.516765368192542 1.298023978812301  -1.988366544844581 0.1181164523892848 1.985795232067481  -1.43886208970591 0.5149695080182193 1.569797912004486  -1.36936675165574 0.5445791180649255 2.094601113017113  -1.441353532002964 -0.002342185071706054 1.686018115577875  -1.973204015961851 0.2720641916429689 1.04935599125763  -1.973811255843297 0.2658987816605045 1.52516799132508  -1.873357740944297 0.6809793394824694 1.315280730417338  -1.188860511984403 1.060117160508811 2.563049150981436  -0.6181448518038473 1.361670697378814 2.257069987665449  -0.5260672980891882 0.8472392595660831 2.417582874741109  -1.033679646116655 1.024275855209801 2.145813876738128  -1.514674703827641 0.3918295191835702 2.521219115594658  -1.9147265257177 0.5446047324439067 2.31369071979841  -1.987182279842392 0.1301404967408785 2.419469863729676  -1.961570560806461 0.3901806440322567 3  -1.423509350166563 1.402886612173637 2.399036955962143  -1.245839619965377 1.552394485835316 3  -1.059542960476273 1.69051866591576 2.444231285366565  0.3959736871192822 0.9167757433455479 2.450393920867024  0.3959736871192823 0.9167757433455478 2.007856029557719  1.014116663803043 1.091301493651112 2.474767832486639  -0.6397769089613947 1.885856361599427 2.410835427716981  -0.2308620053190963 -1.551539094294586 1.717794458136412  0.5916715253007025 1.35922078290025 1.616040581602528  0.4218757816223546 1.951955945932026 1.52996483538921  0.8455820105048553 1.804883176334093 1.110887337947722  0.2171273278454561 1.452231135633227 0.7206241776988639  0.5838681171949094 1.350343322085466 0  0.570825861405329 1.906772433206812 0  0.07503473923697349 -0.9926097232320116 3  0.5289722636881395 -0.8456865231038897 3  0.3150958902771757 -1.466099679343499 3  -0.7388634075939597 -1.312816839320978 0  -0.5715818319253561 -1.466126416576961 0.4872632822601926  -0.790979724086402 -1.834068706473131 0  -0.4336968377143349 -1.444224541082522 0  -1.704258405401222 1.033837715886708 2.209211779154401  -1.813533168648966 0.8293990131207396 3  -1.57081860896361 1.223389760977683 3  0.5942163908489371 -1.374481420233743 0  0.7270811635437457 -1.27490888061952 0.5462966671918753  0.9958825989361997 -1.724545838077583 0  0.8720618164091423 -1.226870877129539 0  1.52814208573423 0.1613137918978926 0.5102072734156454  1.931628784137607 0.4888854537001639 0.8268342758254814  1.873050508530103 0.6819921490195341 0  1.779059765191089 0.8938942146969522 0.5856441150032816  -1.438480770485098 -0.07050119218872986 2.438185635059182  -1.513914009740071 -0.2001832623755173 3  -1.479465319414609 0.08365730523362372 3  -1.973204015961851 0.2720641916429692 0.585554881990308  -1.981971206824973 -0.1830494089890101 0.817455436623969  -1.442538962714197 0.1702583109259658 0.9778387525341716  1.13378064835715 1.644358907156259 1.504736713985521  0.9802837104947404 1.015623498320987 1.932926185769896  -0.6020906612473962 -0.7932912835157278 0.5300545641521022  -0.8836349378529436 -0.457975773256652 0.6404787520590902  -1.023790947274213 -0.8542189253140726 0.4828357610848663  -0.602090661247396 -0.793291283515728 0.9479788500445958  0.6403047911642088 -1.885696230283868 3  0.1878647545340524 -1.981496936684592 3  -0.07495270366908996 0.9926178030302176 2.335678285116733  -0.1633239734712831 1.457514625388545 1.969260541812861  0.1736639328492305 1.982895595541155 1.940581159545814  -1.851925440117959 0.7516321667079673 1.81593851648282  0.9314397286268589 1.185469520867052 0  -1.493079834035256 -0.02565043060049582 0.4708275303802578  -1.940494357883519 -0.4596595737911316 0  -1.873203290925756 -0.6814884929589626 0.7907882208455987  -0.9408192553364747 -0.3268406500285767 1.845715925535895  -1.441806623388049 -0.4387237814713535 2.034006661436112  0.6612847082440421 -1.340114905463987 1.108893916461269  0.3402362675669802 -0.9367557391813275 1.488714204061065  0.5360331878793529 1.383554395144927 3  0.5013469316464557 1.927848636129754 3  0.9318504505456354 1.758771734451193 3  -1.429512709177072 -0.3562124671024821 1.118349919785871  0.7623538123515461 -1.256718477748746 2.327019461856683  0.3106111190640441 -0.9457424297310684 2.455385688454125  1.442193373962851 0.348801655142766 0  1.28393644087122 0.6551747871608027 0.5464156047922772  -0.7378844931157909 0.6696040306912336 1.328661823726752  -0.9726455044974873 1.137273922375865 1.073924182966422  -0.4172064841849356 0.905426576866573 1.472187054373984  -0.5041753880756408 0.8589407292555569 0.7961323206085094  -0.4857392175468291 -1.371645797971567 0.9777955730243429  -0.08925624373007968 -0.9912090272966354 1.19456677684017  -0.4903859489869041 -0.8663113380070018 1.393053778537583  -0.1244862568658107 -0.9877391738626058 1.721971119438714  0.06424814067857221 -1.462513542149503 0.8252938567089958  -0.2165167111830255 -1.978674965265306 1.059418840454187  0.08389629142111744 -1.655366426983338 0.4668966795233791  0.791196862407529 -1.833952643622447 0.6178951048582574  0.5289722636881395 -0.8456865231038897 0  -0.8598386698837637 0.5024954593186663 2.384476326122496  -1.415649600564344 1.412463744774179 1.124111047366489  -1.669846618080803 1.098217641777694 1.495259244783022  -1.669846618080803 1.098217641777694 0.7844479410434644  -1.302506330247836 0.7314384720123622 1.10539181245277  -0.9967945349396865 0.03254563292889093 0.6355050416165856  -0.9916319741441293 0.08496199232257164 1.271933936467721  -1.98098155916357 -0.1930974703189275 1.399842543598607  0.03296184272064258 -1.996753541853206 1.470035164610787  -0.8598386698837638 0.5024954593186663 0.7531117329128125  -0.1161671093212523 -1.988558538379005 0.5893077665132739  -0.5709179202917509 -1.906744507448919 0.7425624981256993  0.7876799948882367 0.6089280362230858 0.7814979844598379  -0.1396511336192156 1.472791285825262 3  -0.5135625025850592 1.416926151553228 3  -1.174791349590177 -0.9094291444928995 0.8802318284181406  -0.8667404926794215 -0.4895830570665023 1.393053778537582  -1.392669400495818 0.5227178203765839 0.5650798974098937  -1.524758301142871 1.279514408446921 0  -1.779307272275358 0.8934311615112988 0 
[...]
<PointData  Vectors="f_17"> 
<DataArray  type="Float64"  Name="f_17"  NumberOfComponents="3" format="ascii">3.1488402303909283e-05 7.4287894816185479e-05 -2.3611697664418585e-05  2.1290218496817164e-05 8.6385872787786224e-05 -1.7677681989095443e-05  2.7266743371512092e-05 7.1276601002968367e-05 -1.0228819169043874e-05  4.5117410589060922e-05 6.2907505735475659e-05 -8.4131388214405716e-06  7.6424654587972136e-05 1.4890027451878598e-05 -5.6440399756207434e-06  7.0906075597489398e-05 2.0662784566075698e-05 -1.3965357126992547e-05  6.8117120027503451e-05 3.7697834540066279e-05 -8.4952802791386253e-06  8.6166452981736364e-05 3.0855967178523727e-05 -1.1880593543292606e-05  9.1175845515317178e-05 -2.2829498924569187e-06 7.8327384686776253e-06  8.0869596378375694e-05 -4.7739735043798246e-05 -2.7854370227884276e-07  8.3849302883813397e-05 -2.3035682156626063e-05 1.5892229468499452e-05  7.6330129725498704e-05 -1.5249388894789031e-05 6.0255280191587580e-06  5.8750010379943709e-05 7.2387548409904887e-05 2.6690478272884750e-05  3.1673858677757092e-05 5.6159417514762050e-05 2.4026796814815562e-05  2.9095078015119933e-05 6.8909125096121057e-05 1.4967387944014147e-05  4.4203974331155575e-05 6.1366383358944871e-05 1.2192528038887224e-05  8.6098792207090504e-06 -8.9313776978811209e-05 -1.8735187364645079e-05  9.5591970255459729e-07 -7.2211964991859088e-05 -1.6346025451007200e-05  1.4753068936600507e-05 -7.1594324761219401e-05 -1.5435348938550563e-05  1.7412603860248245e-05 -7.7618533464840324e-05 -2.4183311257750326e-05  1.0867243913746149e-04 -3.1504384783132090e-05 3.0915636608749444e-05  6.6251797534334526e-05 -4.6223579443045121e-05 2.2731189592634401e-05  7.1566017134708202e-05 -5.1541753828016156e-05 1.4669951869317597e-05  -2.0806506468757551e-06 -7.6012148794187464e-05 -1.0621803578969529e-05  -5.3673513391996739e-06 -8.0067357910098996e-05 -2.4302772732875865e-05  -1.7558807840159252e-05 -7.1665171455922240e-05 -1.4951087662894220e-05  8.1893328470008080e-05 -4.8643531091629999e-05 -5.4418686951915660e-05  7.0216741244055156e-05 -4.1691673049753311e-05 -2.3690953693717584e-05  7.2295299936977475e-05 -1.4682256358590107e-05 -3.3405182901219536e-05  6.6357758433086911e-05 -3.0219516529908723e-05 -3.3451858092412110e-05  8.7647226480418386e-05 -1.6062886492312463e-05 -6.3903960105007781e-06  1.1379056834896634e-04 1.1966482193846547e-05 -1.0391931333716517e-05  1.1540990647218831e-04 -2.5256564529125605e-05 2.3173161732236260e-06  1.0950908207320420e-04 -3.2147152534014427e-05 -1.9060993241779571e-05  -4.0797500656937528e-05 7.9767217099077875e-05 -4.0847299127834912e-06  -6.8101163882159041e-05 6.1421618960226084e-05 -1.9159744107924261e-06  -4.1370102754762739e-05 6.4733362576709926e-05 -7.4270852901498276e-06  -4.6411658482192248e-05 6.3838727762554248e-05 4.1851775798231224e-07  5.5806298222709657e-05 -4.6288108707725569e-05 1.3900403662158172e-05  5.2360863337187195e-05 -3.3669817062140425e-05 2.2943653923374949e-05  6.5043900201291338e-05 -3.1955393606879154e-05 1.4786841267326753e-05  9.4058409214007172e-06 7.9350612474167809e-05 -2.2682746223354211e-05  -7.4326246592535851e-06 7.4468050045413010e-05 -1.1820387700402839e-05  -1.4049685033157533e-05 6.0911278812328619e-05 -2.1378827043345895e-05  7.6949965444263837e-07 6.2990106937806095e-05 -2.2326086003014195e-05  4.3172594055575815e-05 -8.0991267241472154e-05 -7.3000418807813928e-06  3.1730321367274117e-05 -7.1847772857803436e-05 -6.2384799298947815e-07  1.8565192493204064e-05 -7.4855081975549301e-05 -7.2616206437954305e-06  1.6171416733296334e-05 -8.9976928728869275e-05 2.9178219324209858e-07  8.6717720193593039e-05 4.1252145306388149e-05 5.5573457667434534e-05  5.6782095761977964e-05 4.9370282752013253e-05 3.3759849309354575e-05  5.8335111435218647e-05 7.6772763352011772e-05 5.5200536042924173e-05  1.1030482603809983e-04 2.0752022877413987e-05 -2.7437703584052675e-05  8.3159161193954148e-05 3.1474460644832260e-05 -2.5486769636020181e-05  8.5826754679005596e-05 4.0931433417781664e-05 -5.4904168492621129e-05  9.5110889982650119e-05 -2.6177602655987256e-06 -5.4954321692530445e-05  -7.0519460177125701e-05 -5.9051235617623246e-05 -1.4666751435125342e-05  -6.5129336100469524e-05 -4.2885100295164027e-05 -7.2605173722380054e-06  -7.6734658481060437e-05 -4.7560336436054931e-05 -2.3010937720923822e-06  -5.1216873302190104e-05 -5.7889716456927579e-05 -8.2628512436426468e-06  1.1377132677563192e-04 2.3109181853145219e-05 1.8662705976684466e-05  9.9013243365739083e-05 6.0786386256952655e-05 -4.9110683645591632e-06  8.8540168043856868e-05 2.5591398883871587e-05 8.4958514533776359e-07  -7.5623309634600976e-05 -5.9591031627787336e-05 -5.5203106904340781e-05  -9.4326564854425621e-05 -1.9814358314819076e-05 -5.3239504738368468e-05  -1.0068916118466396e-04 -5.1881157669281169e-05 -3.0243967824026547e-05  -7.5449627194248118e-05 -3.7914999192136450e-05 -2.3826359320244479e-05  -3.2803423950709490e-05 8.6203089126256357e-05 1.0430553730052069e-05  -2.9928251124035307e-06 1.1738869446365941e-04 -3.7661411196229152e-06  3.3578651943442539e-06 9.0973257919949122e-05 5.8609635514208584e-06  -7.7184273313479757e-05 4.3878030106765001e-06 -7.4241752046179277e-06  -8.5837813892605138e-05 3.1178819150840426e-05 -5.0309724467036724e-07  -8.3276725534733279e-05 3.3977304154701022e-05 -1.4245531820961125e-05  -9.5195070137612243e-05 4.1046128158377143e-07 -4.4997753742175921e-06  -7.7037603538829226e-05 1.1736920724267572e-05 8.5780159688443345e-06  -7.8701353357407710e-05 1.0263183854543001e-05 2.4856875852427560e-07  -7.4343136061220860e-05 2.7071568753174943e-05 4.4221977521707594e-06  -6.0838257074445332e-05 5.3621734654228945e-05 -2.2296242423142837e-05  -3.6869899846837968e-05 7.9974980617218913e-05 -1.8039580703632578e-05  -5.7479616536123617e-05 9.3074815802416110e-05 -3.4394028134331544e-05  -6.5372580211850526e-05 6.4248334542252311e-05 -1.6127950190334309e-05  -7.9908137408576821e-05 2.0589790468406441e-05 -2.2084580629235132e-05  -7.1582329001055342e-05 2.0739831722838207e-05 -1.2219171147638033e-05  -7.3123521921417107e-05 4.4937982848486637e-06 -1.4552193328569197e-05  -6.1573980407362772e-05 1.1672897676746775e-05 -2.1392170740941098e-05  -5.2140540180200089e-05 5.1014042572110540e-05 -1.3298482102863273e-05  -3.9787332924037551e-05 4.9087541992071482e-05 -2.2478047378787367e-05  -3.9114268710386582e-05 6.1424897903372667e-05 -1.4254059216174203e-05  4.3426056809959644e-05 1.0153743345317254e-04 -3.6057567725666450e-05  4.5235782939322176e-05 1.0691563779144409e-04 -1.8375363565930277e-05  5.8635431748692587e-05 6.4231303174511065e-05 -2.3084266755025737e-05  -2.3940630194888459e-05 6.8518747569045360e-05 -1.3986667578326572e-05  -1.3052807253216733e-05 -8.7576057077165697e-05 -6.0196453580841277e-06  3.6481415309769057e-05 8.4303940547669732e-05 -2.6120614098422193e-06  1.6190700793693203e-05 7.7941501813056825e-05 3.1389862936018877e-07  3.3085161257489552e-05 7.1110569829390083e-05 7.4808300591477152e-06  1.3075884974452260e-05 8.9631374949008009e-05 2.0101726464339849e-05  2.9252280577340164e-05 6.9363327373839551e-05 3.3614063871719037e-05  1.7141336187960019e-05 6.2031562930248547e-05 2.3801844299584779e-05  6.3067240025517705e-06 -9.4912362758421028e-05 -5.6076917732420931e-05  4.9690709912021042e-05 -8.1776759470101470e-05 -5.4398331511326694e-05  1.5061547631123578e-05 -7.2297452126898613e-05 -3.3088671351157493e-05  -3.6034112486455413e-05 -6.1879937492193571e-05 3.2121178940502985e-05  -3.0414382600420991e-05 -7.5232789675376115e-05 2.2169798051024045e-05  -2.5619380479049681e-05 -5.6338738105899441e-05 2.2433936236440313e-05  -2.1869511959132565e-05 -6.9121332820426280e-05 3.2077171761814527e-05  -6.4290396836066540e-05 3.9283949408484321e-05 -1.0514514302825452e-05  -5.6998430977366003e-05 2.5487968835066977e-05 -2.1320651184466524e-05  -5.0044840105802494e-05 3.8029582044954793e-05 -2.2418034847948137e-05  2.8688120082414783e-05 -6.7445247291783312e-05 3.2354716860309105e-05  4.2662988588027580e-05 -7.4783352858814574e-05 2.2665654374536668e-05  3.0960190913355479e-05 -5.3587733618543816e-05 2.3233798280799051e-05  4.1067406726153067e-05 -5.8782379413537373e-05 3.2665219526250524e-05  8.2769298133465960e-05 1.0441288163365049e-05 2.3065975884597934e-05  7.3023981194543578e-05 1.9184034147272186e-05 1.1338789087862613e-05  5.8298553468890263e-05 2.3208205098002213e-05 2.2681750015802023e-05  6.4444022968533673e-05 3.3566360732456713e-05 1.4935089266718156e-05  -8.9128440505140751e-05 -4.8158930328627395e-06 -2.2888623549859768e-05  -7.3422572208273483e-05 -1.0145854608009455e-05 -3.2268694502167584e-05  -7.5598331603611219e-05 3.6925579310040543e-06 -3.2496537780864181e-05  -7.3797865553381137e-05 1.1096921873551161e-05 1.6164302167050024e-05  -7.6735418493813323e-05 -6.3594088392440175e-06 1.1723885675209978e-05  -9.1642157722669683e-05 1.0430920099460831e-05 1.4723113522608817e-05  4.5363997047918212e-05 6.5275696248325704e-05 4.0940963924527583e-07  6.5940866753107867e-05 6.8873358867383756e-05 -1.1364223059065862e-05  -6.5246212952528419e-05 -8.5420127228309911e-05 3.6183600103865156e-05  -1.0097005821328080e-04 -4.8985796984546236e-05 3.2473895880197425e-05  -7.0645612611969547e-05 -5.7521306316739369e-05 2.7091182226444782e-05  -6.9906608045622863e-05 -8.9286996321819926e-05 2.0164987551800710e-05  2.0819946451347485e-05 -6.0236818284339807e-05 -2.3969007143593141e-05  5.2678556478005255e-06 -6.3533804850101242e-05 -2.3859533440725840e-05  -8.0588682082235675e-06 1.1203088455151802e-04 -3.0690857617263412e-05  -1.0531922201949158e-05 9.1298865677608731e-05 -1.1482160256798540e-05  5.8896936527604517e-06 7.7997277719474254e-05 -6.7834737892711726e-06  -7.1963942722531198e-05 2.9834165227228874e-05 -4.0198980651060556e-06  4.5046544704490309e-05 5.9200876546776517e-05 3.4023931284103832e-05  -8.5864751005100911e-05 -6.7539778339849150e-08 2.4624469429123276e-05  -6.3192271109170704e-05 -1.3097875961547831e-05 2.3306937219263376e-05  -7.2131381277622895e-05 -2.5314701521419580e-05 1.1630344726767055e-05  -1.0925205595595633e-04 -3.7271604364420342e-05 -1.2202081594406656e-05  -8.6041526320245943e-05 -2.7168830659815584e-05 -1.3505829198734585e-05  4.0316762497965794e-05 -8.1623578516838222e-05 8.8846324242598370e-06  4.0339463738666812e-05 -1.0981662039860486e-04 -3.2792100278998525e-07  2.7214310809580432e-05 6.9222359823884239e-05 -3.2668965985579795e-05  1.5881701059450451e-05 6.1247325608807947e-05 -2.2179699820965757e-05  3.0060920465069152e-05 5.6642845936156177e-05 -2.2699226659384689e-05  -9.0828067988879397e-05 -2.1910607891507868e-05 9.7734494938626558e-06  4.6176084346879659e-05 -7.6131825883189277e-05 -2.0342106903528245e-05  3.4162744797392078e-05 -1.0456378878923165e-04 -3.6288820223378619e-05  7.2041480428528730e-05 1.8949667176606894e-05 3.3074178851069922e-05  7.8421288961810982e-05 4.0672178893973792e-05 2.3740597745051173e-05  -8.6253304257646044e-05 7.8396345447990918e-05 6.9839658955419647e-06  -5.9634132872629734e-05 7.0033621193378757e-05 1.1858445979128313e-05  -4.8247476695832236e-05 1.0719461818955282e-04 1.1463355204175523e-06  -5.7452456648390283e-05 9.7471218116393290e-05 2.7209407450077604e-05  -3.1621976654264001e-05 -8.6673332475082731e-05 1.2826356221040276e-05  -1.1593429719319455e-05 -1.1593968940101687e-04 1.1457356565749236e-05  -5.7485700903286822e-05 -1.0043244829307831e-04 4.0201385286248027e-06  -1.5254890716296952e-05 -1.1551699510967582e-04 -8.5226424283229335e-06  2.8940880367410375e-06 -8.8885042289429554e-05 1.6613793525726294e-05  -9.2960589001442499e-06 -7.6192853067212374e-05 6.6205662119221048e-06  3.4088618242206361e-06 -7.7907791817389879e-05 2.0810204489125630e-05  2.7805810839043802e-05 -6.6104263020954669e-05 1.2938197221747504e-05  4.9376691230958725e-05 -7.9219249181117270e-05 5.4453835182653385e-05  -9.6260037356162912e-05 5.6431863690163892e-05 -3.3020812891248271e-05  -5.5531645201006799e-05 5.5150104945061361e-05 7.5586702585976720e-06  -6.6278761111826875e-05 4.2833189460775852e-05 7.2771810826114193e-07  -6.3205558233420361e-05 4.2173376155705506e-05 1.2415487909286694e-05  -7.9414425276969086e-05 4.5080356398159291e-05 1.0306047632467875e-05  -1.1310314848758580e-04 4.4228363270604108e-06 3.2742324708510926e-05  -1.1689193032876661e-04 1.0106993795501574e-05 9.6886955997901851e-06  -7.9410481985544887e-05 -6.9902195832930285e-06 2.5032434464397061e-06  6.5008084103367580e-07 -7.8112812321514321e-05 -5.0637237614557520e-07  -9.8930280735165437e-05 5.5646051538118115e-05 2.7964025881207620e-05  -4.7471825494376748e-06 -7.2121626507673929e-05 1.4149950062168569e-05  -2.2674426129851942e-05 -7.0767884104225995e-05 1.1597874557364598e-05  8.9303362007496457e-05 7.0500328075666059e-05 2.7146396226564194e-05  -6.5367003275191131e-06 7.3979369526480464e-05 -3.2423143074893849e-05  -2.5133474855411948e-05 6.8551258488993815e-05 -3.2705269004620025e-05  -7.2264177289342317e-05 -5.3565507763813905e-05 1.5084224065228872e-05  -1.0277334405826684e-04 -5.7510103638487864e-05 3.7491501080870198e-06  -8.1960633852314028e-05 3.1037915228938068e-05 2.3483525634785066e-05  -4.8244508427081294e-05 4.1370914568661436e-05 2.3503859819425231e-05  -5.7579872472875568e-05 2.9894042493565075e-05 2.4741695704407846e-05  6.8931307991578104e-05 -3.3639411483464667e-05 8.1778129008573283e-06  -4.9899231541529152e-05 -5.6089701294681884e-05 -3.3720845219285345e-05  -3.4564013783737331e-05 -7.3432088746651193e-05 -2.2917092452011579e-05  -3.7910014376300471e-05 -8.7897578891847099e-05 -5.4475502037665735e-05  -3.5264295301276853e-05 -6.4292732714083228e-05 -3.3409735818321284e-05  -7.1841553691380850e-05 2.6895218021338002e-05 1.2078099070764567e-05  -1.1840131764751945e-05 -6.0978692543112129e-05 2.2012926519420114e-05  7.6842328403432087e-05 -1.6657296853234346e-05 2.3979176544498657e-05  7.5032909713596658e-05 1.3870229179229659e-06 1.1942033814087603e-05  -9.1110565033943299e-05 2.6053585411096799e-05 -5.4913843132747410e-05  5.7101098280794474e-05 7.7042485789043702e-05 -5.4793830023849865e-05  4.4127238217528270e-05 5.9271461423559689e-05 -3.2665509609341766e-05  5.6109011163035402e-05 5.0484187699723419e-05 -3.2639451399682976e-05  1.5366390247976886e-05 9.6975853729061132e-05 5.3972160436112560e-05  -5.8592493748342033e-06 7.5815248665871455e-05 3.4394741275452367e-05  -3.0917545433188634e-05 9.0305496755622934e-05 5.6394776965150904e-05  -6.8640677433464285e-06 1.1070022667529998e-04 3.5285872645284238e-05  -7.5332658034280633e-05 -3.3554264319713799e-05 2.3351476877320687e-05  -6.1437212052717076e-05 -3.9673275720200168e-05 1.4537230890004922e-05  -7.1418089629246692e-05 -9.1207423074158954e-05 -1.3221579134218950e-05  -3.8312775829560143e-05 -8.4035020913830337e-05 -1.6155751012127111e-05  7.8358434472880048e-05 6.6894831094402624e-07 -1.4652715129842913e-07  -7.3778265275000382e-05 -1.1273949539409546e-05 3.2878515119689077e-05  6.0092383696926946e-05 1.0091836188132410e-04 9.0954681440179123e-06  4.5956885420960968e-05 7.9106717861484555e-05 1.5032379087926355e-05  6.3807620844784024e-05 3.5089389676169427e-05 -1.5365945520031342e-05  5.0226421697361895e-05 5.2831389826210574e-05 1.5548153256017151e-05  4.3067254555478597e-05 4.7522251911373831e-05 2.4062384188625030e-05  5.8173623932342905e-05 4.3848307532992532e-05 1.6070584455431294e-05  -1.8904262512678591e-05 -1.0644375843502141e-04 3.3196522701179166e-05  3.4525571880318890e-05 -1.0523598039299474e-04 2.8104508764912859e-05  -4.0815551769056153e-05 -6.6823561483420949e-05 -1.9926781310973440e-06  -5.5216781021334386e-05 -7.0775163367253670e-05 4.6547025314090759e-06  -2.2367301983732238e-05 -7.4268234257423370e-05 7.5173052096613309e-07  -3.7121459946927847e-05 6.3455569780232430e-05 1.6159915269759084e-05  -5.0632610832967228e-05 5.3244270827852346e-05 1.5423026680036216e-05  -3.9125363506446077e-05 6.7569652850042367e-05 8.2404443552416153e-06  7.2179056397242888e-05 2.1265117047115155e-05 -3.3034580854845555e-05  -3.8654472142774468e-05 -8.6644754671805739e-05 5.3709435881992579e-05  6.7967405551435902e-06 -9.5037162430469552e-05 5.3978411997362737e-05  -3.4969608169304613e-05 -6.5576105021959117e-05 -1.3670741272647204e-05  -2.3399700104667999e-05 -5.8801440655404420e-05 -2.4030800812030361e-05  -3.6166997006263524e-05 -5.2299892372981589e-05 -2.3747475180895223e-05  -4.0256081986653288e-05 6.3262393443120848e-05 -3.3303885579134617e-05  -2.6966542280700388e-05 5.6989375900253564e-05 -2.3076116780522112e-05  5.2352145271706749e-05 3.6594544713598597e-05 -2.2214264304786107e-05  5.8838267971035676e-05 2.3825863955826114e-05 -2.3905034048764089e-05  -9.2568629339135610e-06 -6.2704414516206829e-05 -2.3775560800731338e-05  2.1607562399148720e-05 6.9363186212169836e-05 -1.5219115560180119e-05  8.5955881500872635e-05 7.1730118093573433e-05 -3.1387571590898171e-05  9.8155905229769871e-06 7.2592984722143764e-05 -1.3963540625660897e-05  -1.1513933186646409e-04 9.6507812390986719e-06 -2.1243979298926764e-05  6.2814696090456664e-05 9.8649045031816811e-06 -2.3224843078592961e-05  8.9328894103306132e-05 -6.2729262157927648e-06 -1.9954466608793053e-05  -5.3462455823151635e-05 -5.4915836553326697e-05 7.8426221250887045e-06  -7.1228306213849771e-05 -2.3032869786666257e-05 -3.2106968250808511e-05  -7.2948012422248092e-05 -1.1003412856346256e-05 -1.4483897062252928e-05  6.5100539798087519e-05 -2.9684506965151465e-05 -1.5772075408226007e-05  6.8987524438643386e-05 -3.2320570558925608e-05 -9.8999763655010570e-06  5.7472822870291039e-05 -4.4932184628677109e-05 -1.4660935141845585e-05  -6.4246628915384744e-05 -2.4012470215617893e-06 -2.3463172793326619e-05  3.2237275047148262e-05 -6.7866048651417317e-05 -1.2247835432456489e-05  -2.1090430615612859e-05 7.1016944870578696e-05 3.4254211280585279e-05  -3.7824592643812987e-05 6.5274530472981214e-05 3.4258228090223341e-05  -3.2919966953870789e-05 8.0907581361870296e-05 2.4704504753381361e-05  -3.4275634816124374e-06 7.4648693005760722e-05 1.4911472687068854e-05  -6.1390505012096425e-05 9.8721664718157462e-05 -1.4505738318071429e-05  -2.6887493947756868e-05 -7.2759335158703145e-05 -7.6457744961359314e-06  -6.3044122993601891e-05 4.1669808758180777e-05 3.3507839356670617e-05  4.2200156372418936e-05 -5.6538759836881070e-05 1.5570370360469430e-05  4.4227179884142645e-05 -6.0614466224757185e-05 9.8419350386492397e-06  -6.9689479310588388e-05 6.6977834016942564e-05 5.5259437024959760e-05  -6.7929294213523586e-05 6.5611672614201212e-05 -5.4477583393680729e-05  -6.2681336564543140e-05 3.8220389208435476e-05 -3.3016757817910580e-05  -5.3216092550271029e-05 4.9158864751611294e-05 -3.2624391584193929e-05  1.7758602854176422e-05 -5.9332283998144778e-05 2.1696286163004832e-05  1.2754803918258181e-05 -7.3844522122500867e-05 1.0301998810942237e-05  7.8646410231912519e-05 5.3238550766241798e-05 8.3742913848989278e-06  7.5922610731388689e-05 -5.0050563656815568e-05 -1.5015453089942238e-05  -7.1750324785444032e-05 1.7173277502931580e-05 -3.3137078264482126e-05  8.3530774208892723e-05 -7.8700008520755745e-05 1.0001515783736366e-05  2.9393938223022108e-06 6.4182299365962836e-05 2.4125458925325612e-05  -3.8329168241461708e-05 -4.8366767367922092e-05 2.1561920062833814e-05  -6.2205905677677417e-05 6.3731699741430330e-05 2.3969743810050536e-05  6.9765989748862858e-05 -1.8081113971489603e-05 -1.5616154958236141e-05  5.9651361399767285e-05 -1.9550710226004389e-05 -2.3306284546146696e-05  1.2598700551753710e-05 7.6098922128787935e-05 1.0399648237110315e-05  4.3699279139432885e-05 1.0337290272406524e-04 3.0714082608652853e-05  9.5014926607018066e-05 -3.1874220388529781e-06 5.4555603665041987e-05  7.2775171604754556e-05 -6.4842031041751513e-07 3.3519047307040211e-05  8.2182987395242805e-05 -7.8916025124881614e-05 -1.0046842395795130e-05  8.5396743093170486e-05 2.4005138208331987e-05 1.4209819964598953e-05  6.9354318105564392e-05 3.5969045859748840e-05 7.2999307269576106e-06  7.7288367097944324e-05 -7.4919658056929944e-05 3.3264716595616435e-05  -6.3138825866838991e-