<?xml version="1.0"?>
<VTKFile type="UnstructuredGrid"  version="0.1"  >
<UnstructuredGrid>
<Piece  NumberOfPoints="190" NumberOfCells="679">
<Points>
<DataArray  type="Float64"  NumberOfComponents="3"  format="ascii">-1.146527028962373 1.167114312334814 0  -0.9184143406250429 1.15951227012599 0.181890248271007  -1.117408632183515 1.349324948359656 0  -1.127667895979856 1.429138092744414 0.1957268739948787  -0.843554369120634 1.571972381406213 0.1893355977975628  -1.023406865707073 1.709833810979671 0  -1.105932760739799 1.665722801080373 0.2684407995307424  -0.6404454764412717 1.557452185064736 0.3229483011552194  -0.6049140089552396 1.896431906697228 0.3184572261395962  -0.5174396855537765 1.720603924206695 0.4455678853971146  -0.6789195424108355 1.679413385346867 0.172716471184192  -1.297015254039048 1.200330857140984 0.198215552709849  -1.513321347298536 1.293450377028231 0.318300028577906  -1.577555788316503 1.215180484183664 0  -1.466118612717564 1.06068664004738 0.1854634457573004  -1.417954567522155 0.9826958282046394 0  -1.687765770332819 1.064693265863353 0  -1.776037932920274 0.899547665238146 0  -1.538403791801157 0.8564673244602555 0.1943213337786517  -0.3365162964824625 0.9378841800729312 0.2405432884014713  -0.4415185705098927 1.234655578466227 0.3250771953421422  -0.5209854872342006 1.060897459510266 0.207962911636449  -0.3313057231869522 0.9394647902018173 0.5  -1.264272254491768 1.537267213620411 0.5235172542791873  -1.237771957270619 1.559015445500463 0.7085720153548473  -1.382377160656424 1.440341022038268 0.687926620973708  -1.192571215110794 1.302722308512609 0.4782864723562278  -0.8092614669963184 1.031632698922229 0.6791456875279881  -0.747028838074304 0.9125730243322504 0.8266226570201092  -0.984599909939442 1.149923132667671 0.7848661116286425  -0.9141816130997213 0.7634549129288799 0.8251041360935342  -0.867837335236696 0.8425368172721063 0.5309559614124686  -0.6564424890631831 0.7486858911845402 0.7578281535473971  -0.631840153311841 0.7688765063405124 0.5362539270910898  -0.688391004567446 1.30457807950404 0.2279694399321673  -0.632518690427178 1.508037302070591 0  -0.5246326138228607 1.437575172319297 0.1874291779963437  -1.162812384258729 0.869959537678654 0.1967137241630482  -1.098472765100997 1.059915202872253 0.2606957431243106  -1.34993589569112 0.9730419110075272 0.3324974874943423  -0.786137885070551 0.6108071024727797 0.5  -1.027957718484444 0.807486031122658 0.3458033622348064  -1.052829203020905 0.5589047274949172 0.5085767754743842  -1.190015801986949 0.4859549610262058 0.2855300420029705  -1.156663002991701 0.588550599634463 0  -1.391582474002526 0.487267687798005 0.2096997911392877  -1.351229656953599 0.5151732646136987 0  -0.7757759682718035 1.842195283264311 0.2279005027763657  -0.7757759682718033 1.842195283264311 0.409013949502827  -0.502990862578652 0.859573871324515 0.3047494630173089  -1.061606909442319 0.9785837600988989 0  -1.315004706961013 0.6972167789990056 0.7557377227898123  -1.232115836721338 0.7631644816213363 1  -1.341896336811819 0.9405672826140373 1  -1.519741993526035 0.8886244139057863 1  -0.686969743987339 1.871540571604279 0  -0.7259496343859416 0.6841466981309493 1  -1.026493956220598 0.7984228743741494 1  -0.8426708147520899 0.5346142571826912 1  -1.24261630433174 0.4137133052539228 0.6762314288941822  -0.88740992893716 0.4509132616824052 0.6953011277941856  -0.947388990623786 0.3051831352366393 0.5363564105802381  -0.3992359231948405 1.264547218604192 0.6584240094702515  -0.5717031409302165 1.095411659227544 0.7615148223574963  -0.5307010043682088 1.3826952685512 0.785767467294626  -0.729538575546018 1.293711139943365 0.7838102578313236  -0.7951415571745835 1.035950760589855 0.3163792525461149  -0.7096214621866395 1.292436199645492 0.5012219118924913  -0.9057171194088783 1.167072336234832 0.4757488249981465  -0.5897572390507918 1.041671125967472 0.5035706790610246  -1.314905435161327 0.6745560659922012 0.4904638895724882  -1.082991713996318 0.5611808793048219 0.7692622717403119  -1.059160609976377 0.7755841138468872 0.6725939498558352  -0.8710834293743044 1.505323501426417 0.4555006884842235  -1.105932760739799 1.665722801080372 0.4985114786665089  -0.8055581621776347 1.507858556983968 0.6786829354555336  -0.9261071527929903 1.761841591057063 0.523708165574422  -0.9290527823196455 0.3656295132424565 1  -1.257212323284817 1.543061149426666 0.3183000285779041  -1.323743981377913 1.488460028710997 0  -1.395988323856183 1.429170629081718 0.2278152199502795  -0.9341416419748636 1.757547067117675 0.3184572261395966  -0.9856468025470075 1.360627069214379 0.677554604785177  -1.201967891204917 0.876419588486421 0.481981018650006  -1.109788677070211 1.078120207642546 0.5482802068902228  -1.43290247623816 1.102502474805115 0.8016223533815361  -1.625681761742057 1.156538815892274 0.729852265836384  -1.382702032230889 0.9409546224454185 0.6727156764281601  -1.723626336383972 0.9976028656093632 0.7650330778500383  -1.308120441486432 0.7203201397046752 0.2251752624482485  -1.234622620676914 0.8484318635280916 0  -1.49971092276425 0.6607539289614928 0  -1.358753583540909 0.4331344014522989 0.4586164123344102  -1.557364917173048 0.7833533360165803 0.4519990588587856  -1.501461285193593 0.980762205338028 0.5025361493182261  -0.7120164604963927 1.653427389927467 0.5133392593030189  -0.6072692169943243 1.895717462149367 0.5362964439456972  -0.829538772807962 1.24650646003822 0  -1.155399090771521 0.9863986739672237 0.7842371480028336  -0.6715976806087487 0.9382906322624599 0.2026049840720276  -1.735554095143283 0.9752875985231242 0.3176742093519687  -1.820074272553177 0.8171614684481179 0.2274378431626041  -1.50754886084441 1.300484172123991 0.5233657346304179  -1.503511147564677 1.30540413999066 0.759039402697864  -1.566418818365817 1.228750921332943 1  -0.5831223326863202 0.8088581884632724 0  -0.7259496343859416 0.6841466981309493 0  -0.8777650763659706 0.8392187700021254 0.1791968347231586  -1.08750656824373 1.473373412162729 0.4186198326001243  -1.447624472225162 1.37350225092525 1  -0.836286829552076 0.9546547382372724 1  -1.598442001919816 0.8131212705610243 0.8005177185861571  -1.7677624176777 0.9150300652967593 1  -1.679490255090245 1.080175665921967 1  -1.001523373036278 1.311368911517147 0.3182110729693932  -0.9546612534662056 1.436284063075672 0  -1.081385764646495 1.38355427730711 1  -1.215281538736748 1.23842223823042 0.7322010707000174  -1.090347441409376 1.674053327819833 0.7298514348497547  -0.9253516653358563 1.762245407515972 0.7647596514128244  -0.6561306764426973 1.122404365790671 1  -0.5831223326863202 0.8088581884632724 1  -1.033708622788163 1.501105289131701 0.8095881280656126  -0.8326984114354637 1.541357275927116 1  -1.65956562518322 0.6779485992594181 0.1896533736052345  -0.859137602666504 1.164403067154992 1  -0.3346493386806206 1.523066756827354 0.432978452806852  -0.4252082943158828 1.690757594369593 0.2517423600102111  -1.157675661796024 0.2874316557483794 0.8237284357888865  -1.132192252194075 0.5760415911141321 1  -1.250327345612778 0.359966722685725 1  -0.6564424890631833 0.7486858911845402 0.2421718464526029  -1.015880871007985 0.6194584810981399 0.2107616280594863  -0.88740992893716 0.4509132616824052 0.3046988722058144  -1.341242197725124 1.124251621324452 1  -1.570108367541714 0.5323200146201426 0.3214131146464111  -1.395988323856182 1.429170629081719 0.4087848372055307  -1.460830652517014 1.031080833577986 1  -0.4431978912794227 1.258461435479526 0  -0.8426708147520899 0.5346142571826912 0  -1.003191405728223 0.7802335023438158 0  -1.111399709213698 0.3143340114943649 0.3936982570693697  -0.3525296771925283 1.668146412112005 0  -0.5077763251465404 1.925898300933896 0  -0.8582612650818664 1.798105973567126 0  -1.564690195006766 0.6196325639107423 0.6892222911693506  -1.007924465648459 1.718109326222245 1  -1.044995883534605 1.072574953573793 1  -0.510994707505987 1.404217254440446 0.5163700951909265  -0.9566144206959937 0.2747709680011161 0.7579149180877363  -1.346016855126876 1.122799247643388 0.5201991910084716  -1.739883507367786 0.9671878379506875 0.5226731680922776  -1.811833783889858 0.8325783383860297 0.6875310263852326  -1.198818116171656 1.24025052295321 1  -1.310173544228634 1.499596998661683 1  -0.7896033500135112 0.6065844212219812 0.7595504241117756  -0.5790841934569149 1.560047235753897 0.6688754989314865  -0.4193563900796843 0.9042774282245836 0  -0.502990862578652 0.859573871324515 0.6952505369826911  -1.857951139271881 0.7317680986975148 0  -0.9819498088636408 0.1832666661363625 1  -1.458761442175848 1.359931813775971 0  -0.9290527823196455 0.3656295132424565 0  -0.6409506341987898 1.096351193148543 0  -1.370317109984933 0.6068829405856371 1  -1.636811764939919 1.142976867755874 0.2684766850732475  -0.854850831960664 0.9759153804258832 0  -1.178992651785606 1.607254374851652 0  -0.5702152500099751 1.383891866592444 1  -0.4213746699951029 1.196244977459891 1  -0.2405674396764836 0.9669899475809407 0  -0.3177026153873686 1.177369199564174 0  -1.573062635283103 0.710522813525687 1  -0.8967436892907179 1.368269408810351 1  -0.7036168792142508 1.675069862734098 0.8042164232910654  -0.8427788650232531 1.8063814888097 1  -0.7827528258206699 0.6149318091030841 0.3055073908801145  -0.6560191600603796 1.594701905386204 1  -0.9772470823615382 1.495419026301591 1  -1.165422214636327 1.618391344802338 1  -0.5821061254012698 1.903350602533428 0.7233926634179388  -0.6701703609710137 1.87663660872893 1  -0.7597161751969241 1.849473182952581 0.6880608757141868  -1.636811764939919 1.142976867755873 0.4985204057412241  -1.663935857491406 0.5750728785195803 0  -1.222473603421901 0.3518873350067027 0  -0.9566144206959937 0.2747709680011161 0.2420850819122637  -1.820074272553176 0.817161468448121 0.4079105755413405  -0.4193563900796843 0.9042774282245836 1  -1.46295663988695 0.3280486082887119 0  </DataArray>
</Points>
<Cells>
[...]
<PointData  Vectors="f_18"> 
<DataArray  type="Float64"  Name="f_18"  NumberOfComponents="3" format="ascii">-1.8890876846214318e-02 1.9401112339417614e-02 3.0268416267623605e-03  -1.7872351355869957e-02 2.2794181148403213e-02 2.0043893763144558e-03  -1.6536027529386751e-02 2.0091870515665293e-02 3.1075431970837603e-03  -1.5658810731672228e-02 2.0047586171945377e-02 1.9138104708272565e-03  -1.2149512570917410e-02 2.2701348584312130e-02 1.9634151333995358e-03  -1.2444715579878486e-02 2.0885276826213384e-02 3.0556796757658824e-03  -1.3347795864686511e-02 2.0302197552298146e-02 1.4911189493614395e-03  -1.0110097816278035e-02 2.4630951384579550e-02 1.1428903423677055e-03  -7.4272166910340750e-03 2.3196348521747241e-02 1.2274021433322326e-03  -7.4551617288798706e-03 2.4586444134733626e-02 4.1535507682864551e-04  -9.5687623061883904e-03 2.3672936698737646e-02 2.0462022200767832e-03  -1.8821873321410672e-02 1.7667699751081976e-02 1.9276767329057161e-03  -1.8343457873874168e-02 1.5890134138034799e-02 1.2102060791416790e-03  -1.9123675436670380e-02 1.4937781987050921e-02 3.1445429545976537e-03  -2.0498021099291320e-02 1.5077394247700219e-02 1.9979302854144110e-03  -2.1419873058578263e-02 1.5103260514088408e-02 3.0935539680965302e-03  -2.0387604237570998e-02 1.3118876617741576e-02 3.1319549139512031e-03  -2.1543664475096227e-02 1.1151836629980462e-02 3.1635787800897114e-03  -2.2505551493694258e-02 1.2791533437169177e-02 1.9616385622056882e-03  -1.3082364736610489e-02 3.6718741820661226e-02 1.6956272520277406e-03  -1.0568921900123719e-02 2.9642684058186968e-02 1.1618609661620740e-03  -1.5057984796519755e-02 3.0576689818638307e-02 1.7705199083152988e-03  -1.2981296167048652e-02 3.6592175487854407e-02 1.2400380247623563e-04  -1.5328006349673070e-02 1.8895945431226979e-02 -2.6047329406855932e-05  -1.4999604234345718e-02 1.9126974803406544e-02 -1.1295605782246133e-03  -1.6661811563325479e-02 1.7628745513536426e-02 -9.6649721324375000e-04  -1.7366363140148434e-02 1.9227689366295563e-02 2.9918624997943147e-04  -1.9340958377418990e-02 2.4893975010741653e-02 -8.5053263072417513e-04  -2.1574600090731474e-02 2.6529274973757247e-02 -1.7332459785485903e-03  -1.8436584450638158e-02 2.1748588501054326e-02 -1.4595875075478079e-03  -2.5894856887024836e-02 2.1906046635824281e-02 -1.8099948830638105e-03  -2.3859781870895966e-02 2.3386943207357461e-02 8.2344154103517839e-06  -2.5468334630692507e-02 2.9389827381341729e-02 -1.3531771670488078e-03  -2.4444594404863622e-02 3.0216918543226629e-02 -1.1574465626904862e-04  -1.3543551684457231e-02 2.5677484713236439e-02 1.7521101233174859e-03  -1.0492420411269613e-02 2.5055819799781314e-02 3.0240473557043533e-03  -9.6961611253673675e-03 2.6586419470478694e-02 1.9272687306315533e-03  -2.3379665746656599e-02 1.7651680359577218e-02 1.9156951539134642e-03  -2.0232356574410262e-02 1.9717021279237554e-02 1.5107469378002475e-03  -2.1585560970003036e-02 1.5829120760709914e-02 1.1245992034449540e-03  -3.0502355048316596e-02 2.3886671826834280e-02 2.0992948465281728e-04  -2.4696598746247547e-02 1.9639384909694978e-02 1.0420504032691740e-03  -2.9798526840897545e-02 1.6112244895330211e-02 4.3878844418071954e-05  -2.9408075517289904e-02 1.2336106541476214e-02 1.3658579857883690e-03  -2.8035836550482734e-02 1.4537029291836505e-02 2.9962983783948863e-03  -2.7220662645507626e-02 9.7929680523945010e-03 1.8367466950688115e-03  -2.7320742841071714e-02 1.0697637208553785e-02 2.9943858620259355e-03  -9.4125794327687418e-03 2.2369346658909040e-02 1.7389663771820462e-03  -9.4491937850091547e-03 2.2386938294788449e-02 6.4594544404158246e-04  -1.9596379156860563e-02 3.3704555856028204e-02 1.3353478198658041e-03  -2.1534011529063597e-02 2.0073065877593433e-02 3.1107232311265508e-03  -2.5272594354329513e-02 1.3707310589398785e-02 -1.3100466657488380e-03  -2.4823347960106521e-02 1.5635641794220181e-02 -2.6509219471890304e-03  -2.1985113912918734e-02 1.5687348105900188e-02 -2.7333445117053616e-03  -2.2219119042025670e-02 1.3262962281330882e-02 -2.7674194414225662e-03  -8.4394322661194426e-03 2.2864308698774934e-02 3.1177032082910791e-03  -2.8068061185345355e-02 2.6644845872054072e-02 -2.7725726319931397e-03  -2.4890653777807956e-02 1.9608606243212139e-02 -2.7441962426923731e-03  -3.2556652554241776e-02 2.0942079652174105e-02 -2.5792417409532414e-03  -2.9724871097930209e-02 1.0217409207675306e-02 -8.0274096683767213e-04  -3.4447959759187297e-02 1.7924905941935070e-02 -9.7567789070746968e-04  -3.6777919001454086e-02 1.2384416139350346e-02 -7.4105845930485568e-05  -9.4252072770559438e-03 2.9839083606429131e-02 -7.8545779593570638e-04  -1.5210986776331146e-02 2.9260021697610095e-02 -1.3467833316268621e-03  -1.0317032198841020e-02 2.7034768096773420e-02 -1.5504559491779661e-03  -1.4057190857297713e-02 2.5242941288110027e-02 -1.4977230932625091e-03  -1.9216789371366817e-02 2.5097505836361597e-02 1.1770795976075942e-03  -1.3880771932959345e-02 2.5493312002951522e-02 1.4306401155520028e-04  -1.7661615629401748e-02 2.3008093684220701e-02 2.6526746872451511e-04  -1.6666207957530932e-02 2.9531903529984718e-02 1.0488644298694016e-04  -2.5514602374985752e-02 1.3452497769351344e-02 2.1184513149155612e-04  -2.9404790805618797e-02 1.5539377667028131e-02 -1.3346722105995318e-03  -2.5235396359328650e-02 1.8717405594335663e-02 -7.7658095896696283e-04  -1.3018672425414546e-02 2.2639691173631977e-02 3.9590485243057891e-04  -1.3380651906178190e-02 2.0272668501929051e-02 1.3913021683739448e-04  -1.2414217281767016e-02 2.3313602105114597e-02 -9.2767799389763207e-04  -1.1306880765017457e-02 2.1504676366085589e-02 -9.2126359224995065e-06  -3.5823750307701650e-02 1.4450972071770608e-02 -2.5107613565298606e-03  -1.5237728119606865e-02 1.8881968537978175e-02 1.2044715000572087e-03  -1.6084176816750232e-02 1.8245186842964656e-02 3.1236079938317426e-03  -1.6850162872532368e-02 1.7415443962396603e-02 1.7458708202680367e-03  -1.1377593387355226e-02 2.1471069984196501e-02 1.2116054987122158e-03  -1.5592499868286846e-02 2.1652243781807978e-02 -8.7695474052797520e-04  -2.3166642708717024e-02 1.7138294530837869e-02 2.4610293113085227e-04  -2.0037090768762224e-02 1.9683068665362423e-02 -1.3977527207210941e-04  -2.0081248728756006e-02 1.5709302974461308e-02 -1.6248346915377406e-03  -1.9628773345397466e-02 1.4193947180293263e-02 -1.2204798252049363e-03  -2.1913506131514351e-02 1.5188472523297206e-02 -8.5565396484378717e-04  -2.0824158792806718e-02 1.2345837799968066e-02 -1.4117756613544745e-03  -2.5014329072334827e-02 1.4079255553649745e-02 1.7023390797013345e-03  -2.3586338348181246e-02 1.6393482294927559e-02 3.0714911463005199e-03  -2.4586753441077514e-02 1.1153381933660863e-02 3.0505702222354352e-03  -2.8079479058144091e-02 9.2980593159063176e-03 3.4291362299825739e-04  -2.3127601281245771e-02 1.1887854106294154e-02 4.4436890748675561e-04  -2.1316735853113385e-02 1.4200812681025819e-02 1.7155532165343158e-04  -1.0138119225107727e-02 2.3570120136014193e-02 3.1751920996856973e-05  -7.4496674776207356e-03 2.3147833444964700e-02 -9.5108340909151059e-05  -1.5860439061418246e-02 2.4007707519126443e-02 2.9990744592377585e-03  -2.1457527552737162e-02 1.8656137936958046e-02 -1.4704048785668567e-03  -2.0100688487288732e-02 2.8279697794020283e-02 1.8660519651341001e-03  -2.1001501897756677e-02 1.2050842864514461e-02 1.2848635012451246e-03  -2.1993517371981196e-02 1.0130787887922396e-02 1.7919405852177678e-03  -1.8251414549169905e-02 1.6018042493876467e-02 3.4452966306078714e-05  -1.8199286680040918e-02 1.6071675898272020e-02 -1.3669804277603493e-03  -1.9006090664513128e-02 1.5149919767282983e-02 -2.8894902565939793e-03  -2.2629886224139837e-02 3.1516543503243330e-02 2.9567786901572783e-03  -2.8265717266226113e-02 2.6911472929845227e-02 3.2448189033908283e-03  -2.3889912011655020e-02 2.3141242096576854e-02 1.9840693693381315e-03  -1.4972051207162542e-02 2.0445331179419830e-02 6.1284115425381451e-04  -1.7480127104373123e-02 1.6847248711814953e-02 -2.8366681324238411e-03  -2.1147794230109519e-02 2.4478705158689967e-02 -2.6475489010324379e-03  -2.2679131835787809e-02 1.1808570276533549e-02 -1.5996639575128718e-03  -2.1419715169705755e-02 1.1318527174533218e-02 -2.8557405973662180e-03  -2.0271043604962243e-02 1.3303031206917164e-02 -2.8002686304088010e-03  -1.6301381088143267e-02 2.1500246317753092e-02 1.1518599842483695e-03  -1.4477275719055995e-02 2.1925091315101713e-02 3.0776349868079549e-03  -1.5901996994098593e-02 2.0596959269667519e-02 -2.8036270954824860e-03  -1.8216816419736416e-02 1.8761347543332973e-02 -1.2594116134307678e-03  -1.3178533526581061e-02 2.0410123399837519e-02 -1.2215012029153682e-03  -1.1240762043483985e-02 2.1557065589972911e-02 -1.4702388404907057e-03  -1.5930596550601205e-02 2.7506535925127168e-02 -2.6957994934251124e-03  -2.2571379915622202e-02 3.1651429613475078e-02 -2.7220715890035573e-03  -1.4342347103607224e-02 2.1027615420281528e-02 -1.6836835181889462e-03  -1.2330593655527265e-02 2.2979356379159009e-02 -2.8359267615642855e-03  -2.3572097944040221e-02 9.8904923653888692e-03 1.9891389628294807e-03  -1.7408325372162768e-02 2.3818041916004850e-02 -2.7156905943214855e-03  -6.0749497184586759e-03 2.7322214616448157e-02 4.9029690319241591e-04  -6.3993276214181910e-03 2.5334960937983566e-02 1.5761365091240152e-03  -3.2583093347813362e-02 8.4230989880797157e-03 -1.7562262489297165e-03  -2.8610203082669945e-02 1.4827153724660718e-02 -2.6950479541897688e-03  -3.0228640079937592e-02 8.9618584010144695e-03 -2.7784587081015706e-03  -2.5566596023432427e-02 2.9318456608425390e-02 1.8270014994319678e-03  -2.8743384690763808e-02 1.7751197159373167e-02 1.8025205401549639e-03  -3.4716079428730173e-02 1.7757260953190614e-02 1.3246569087313682e-03  -1.9828380936546867e-02 1.6856757114050450e-02 -2.8042168749581303e-03  -2.5260153473796426e-02 8.8495811271571898e-03 1.2183092523622839e-03  -1.6870123209833440e-02 1.7464532812566245e-02 6.5167429177532220e-04  -2.0857948265881346e-02 1.4981998984226277e-02 -2.7932462524227434e-03  -1.0468012495978075e-02 2.9395431542886159e-02 2.8994866294470428e-03  -3.2450442256662750e-02 2.0933937220009510e-02 3.1180790202521408e-03  -2.5394441380808420e-02 2.0019508381203626e-02 3.0435399608858766e-03  -3.3101202053615691e-02 9.6300959205088150e-03 8.4620875541863670e-04  -5.5640836529781005e-03 2.5913874587145638e-02 3.0248753312335681e-03  -6.2766175307548870e-03 2.3556109154870622e-02 3.0894231844159465e-03  -1.0440012372736481e-02 2.1994251623605320e-02 3.1109066979037722e-03  -2.4590158564471710e-02 1.0009568161331738e-02 -9.3838932805876416e-04  -1.2264657901864011e-02 2.1045137269385849e-02 -2.8142594550745934e-03  -1.9931717560135030e-02 2.0673253247063698e-02 -2.7738232173177947e-03  -9.8901657888475353e-03 2.7088698082600976e-02 1.5354098640576130e-06  -3.7161130771200666e-02 1.1083952674775702e-02 -1.4536291082582005e-03  -1.9852849677137067e-02 1.6796995342660923e-02 3.6472538540074588e-05  -2.1067591023681581e-02 1.1946165223301443e-02 3.7625827840884175e-05  -2.1879232905030962e-02 1.0304563357401587e-02 -9.3578961999230936e-04  -1.8139786449828440e-02 1.9030484097183518e-02 -2.7829236868166470e-03  -1.5912233557266231e-02 1.8400302508421073e-02 -2.8295620074680417e-03  -3.0814186109010502e-02 2.3862447758270719e-02 -1.3543402541103837e-03  -9.3296714302058686e-03 2.5164082848679124e-02 -8.6303417280057999e-04  -1.6531050105258203e-02 3.5286500201571952e-02 3.1551283295421016e-03  -1.9691806786531079e-02 3.3610307009158458e-02 -9.8707740704860581e-04  -2.2404552554412979e-02 9.0950526153295540e-03 3.1506909977982956e-03  -3.7778311956817294e-02 7.4604633806117388e-03 -2.7363274601724455e-03  -1.7663809908912531e-02 1.6669634156874179e-02 3.1421608975460125e-03  -3.5913963702215945e-02 1.4469035103564405e-02 2.9832059356368224e-03  -1.6266860894189123e-02 2.7861644255934175e-02 2.9318692194776875e-03  -2.6044565791735086e-02 1.1817819113124748e-02 -2.7632469278041322e-03  -1.9750879784165110e-02 1.4000400192709650e-02 1.5347261901913095e-03  -2.0894953749737908e-02 2.3953290559365320e-02 2.9837160982171961e-03  -1.4306631635878784e-02 1.9666429558050647e-02 3.1242946761093817e-03  -1.0909565769579065e-02 2.6700354500409824e-02 -2.7746117093996646e-03  -1.0714229087412782e-02 3.0588817868847890e-02 -2.6997417999712441e-03  -9.4125777765719648e-03 3.7858238163748184e-02 2.8328653752917542e-03  -8.7051176585217875e-03 3.2179789196287611e-02 2.9467530724979706e-03  -2.3720338043760211e-02 1.1036397201323274e-02 -2.7160069002666503e-03  -1.4789804684613684e-02 2.2784972466265204e-02 -2.7585629746654707e-03  -9.8698477450764790e-03 2.3537433465923008e-02 -1.6401982536598965e-03  -1.0209507880167116e-02 2.2121465218259143e-02 -2.8760725058972715e-03  -3.0497095265043767e-02 2.4164164852505970e-02 1.4238573663059987e-03  -9.9836373232738730e-03 2.4338514239869952e-02 -2.8166687812986252e-03  -1.4005425822202955e-02 2.1641947925820967e-02 -2.8122915484485823e-03  -1.4116710852511078e-02 1.9838637448790029e-02 -2.8822940988722880e-03  -7.1419262103178246e-03 2.3294526034912860e-02 -1.2130333201101637e-03  -8.1729786340298399e-03 2.2933535118245696e-02 -2.8384888048019548e-03  -9.1893559239155619e-03 2.2520563709624328e-02 -9.8388380991806562e-04  -1.9736798157006536e-02 1.4072043616219618e-02 1.6178397038106636e-04  -2.4327306992722911e-02 8.7159974666448977e-03 3.1209433962373079e-03  -3.0819907499637419e-02 9.1221385256868379e-03 3.0098606051755204e-03  -3.7188323695493714e-02 1.0852694860510111e-02 1.7259588382560075e-03  -2.1965452015956382e-02 1.0142048181207557e-02 7.1777133841508715e-04  -1.6312531194052449e-02 3.5238988843346843e-02 -2.7566354420980187e-03  -2.7852043194347548e-02 6.5519658955734044e-03 3.0856452238196704e-03  </DataArray> 
</PointData> 
</Piece>
</UnstructuredGrid>
</VTKFile>