<?xml version="1.0"?>
<VTKFile type="UnstructuredGrid"  version="0.1"  >
<UnstructuredGrid>
<Piece  NumberOfPoints="176" NumberOfCells="644">
<Points>
<DataArray  type="Float64"  NumberOfComponents="3"  format="ascii">0.3808210433871149 -1.763882641155164 0.817384939724187  0.3085523311331526 -1.969610247897571 0.6877920714727481  0.4909769421302074 -1.93099433805855 0.7575947101728453  0.4013802327098077 -1.958173202723359 1  -0.478103915917917 -1.622351537092959 0.6977077997690853  -0.7019581915565072 -1.428580415300582 0.6030955109277132  -0.5009139441539338 -1.349251873811594 0.5222432048981768  -0.600331598708143 -1.59479459233563 0.5327841362643094  -0.391399680066276 -1.237628786651703 0.6919365007968804  -0.2590693906238568 -1.20275231542913 0.4440646667880484  -0.0283024105191868 -1.319764063833097 0.6643409374643552  -0.3013774395956234 -1.46260667850183 0.4980611061261317  0.509899363520301 -1.411274404689723 0.7930410904030668  0.3070347646120418 -1.231266475456671 1  0.4006956025444619 -1.24843802094553 0.6812500201025888  0.2057664659883401 -1.423434689071494 0.7640294242581815  0.2382892175692876 -1.471591899036973 0.4955209781265861  0.2441482264665806 -1.68711095498594 0.2543611194868012  0.1435408183010254 -1.450724164001282 0.2140138195018315  0.364943845569369 -1.449405072691717 0.2215112330483742  0.2062702119573308 -1.209832294552009 0.5069451591351182  -0.03861139831730298 -1.305902836371665 0.3300992328426874  -0.05411455619544295 -1.180335689722473 0.5033519982168086  -0.2895078849523348 -0.9521440258122447 0.5362539270910905  -0.1357582835267979 -0.9866289761380859 0.6952505369826913  0.580573651550607 -1.903815473393742 1  -0.3199640933144202 -0.9429052360103518 0.2421718464526027  -0.2125504397148364 -1.162691776221664 0.1975610850782581  -0.1357582835267979 -0.9866289761380859 0.3047494630173088  -0.4351952344254975 -1.947915534096728 0.6879022171241533  -0.2402120605469595 -1.711293099448459 0.5951721536062687  -0.4600007231585856 -1.741224516301115 0.839054333966232  0.2714449589252247 -1.737958397311344 0.5450653594799665  0.1950572695963902 -1.642354837545477 0.8022942540786289  0.03120277905539251 -1.811956316928485 0.8125929633736308  -0.4440833295236094 -1.71425197172058 0.4678594158892408  -0.4183657802379684 -1.953020693211437 0.408732946950341  -0.5813842162651643 -1.903569591275731 0.523429982291165  -0.3808198010052772 -1.790558406603984 0.1504571686824595  -0.5815907792414369 -1.730327197418943 0.1999992988745308  -0.5077763251465293 -1.9258983009339 0  -0.4183657802379701 -1.953020693211436 0.2277978856468753  -0.07500943433028509 -1.474435204751512 0.1919497770721977  -0.3137778112923204 -1.68608512553939 0.2678397090627448  -0.03520767882359688 -1.640567625407656 0.3320536221747551  -0.1566368448175122 -1.793720957643859 0.18398156279419  0.05030182414384535 -1.803661568783909 0.2036923702794375  -0.03543509394030583 -1.764333212356711 0  0.2713321621710769 -0.9576575710401055 0.4639489892092016  0.2407869516577543 -0.9669233593494102 0.2422811437659894  0.05343103384430749 -0.9947375024938501 0.5  -0.2014555392941981 -1.478248236877164 1  0.003668755892212508 -1.493215934204981 0.787439376260352  -0.02232178777519556 -1.473130981466516 1  -0.154369246248236 -1.699740344597331 0.7947821971961868  0.1007019071959621 -1.603439299358557 1  -0.9480652577231136 -1.538949907681568 0.8061489537317872  -0.6368272338775195 -1.693027353228223 0.8099549854831261  -0.6846365793693017 -1.619799801115259 1  -0.87374366514047 -1.789830458324557 1  -0.3199640933144202 -0.9429052360103518 0.7578281535473974  -0.2659591891699546 -1.1284900652415 0.7985766483770914  -0.590119815534959 -1.900919676207915 0.3182654162986099  0.05343103384430752 -0.9947375024938501 0.7658315521872422  0.5834852897946156 -1.717308399664762 0.1887386398541893  0.397761442467862 -1.76067971301323 0.1654331644783746  0.5973730345669322 -1.89871943626909 0  0.5007099757113176 -1.928041854600282 0.3180605671254946  -0.01611705518357669 -1.173434577098943 0.1859369354259534  0.07154606132155185 -1.321715210143045 0  0.1477956984970681 -0.9854433942448714 0  0.1801353948751905 -1.193599542703115 0.2007384199400539  -0.7677466476962631 -1.430304235837895 0.8149664493944945  -0.5616060024380179 -1.386687091185208 0.8148643367043878  0.04801221851458279 -0.9952712092202078 0.2405432884014712  0.2407869516577542 -0.9669233593494104 0.7577188562340107  0.4037512339627746 -1.080144681274499 0.7916997388280334  0.4195556527163921 -0.9041709201262842 0.6951876610204601  0.3315216749971926 -0.9393992819363619 1  -0.7219618228038823 -1.307247678942268 1  -0.424931754213151 -1.254338206796035 1  -0.5126054700643949 -1.558802044544336 1  -0.7773345907527112 -1.628786731198925 0.6526384974201469  0.2154728929730389 -1.978777772385657 1  -0.2495643282831916 -1.975420059079501 0.523296014419804  -0.2558928613726579 -1.974796752974326 0.7590571066826004  0.1565705466232291 -1.98457914713868 0.5229942139642612  0.1475013517951027 -1.985472384864622 0.3180605671254942  0.04828442375762464 -1.791526417147052 0.4778949596205868  0.3259282302928228 -1.967898871204743 0.4084490649969672  0.1222954257414549 -1.987954951894562 0.7650725853231248  -0.1841632852949054 -1.481781513248469 0  -0.4201509119839557 -1.525914389044415 0.189673720245272  -0.2066708202968356 -1.710304351128139 0  -0.2063280620574955 -1.495866829825451 0.7392619680215531  -0.2831750095673835 -1.332000524373365 0.8438495817462545  0.1630944082857211 -1.206736717024586 0.8238329233967183  -0.4925834195271322 -1.072587773108498 0.7942257610232533  0.2828443174131989 -1.737656437702833 1  -0.3883412669983054 -1.709972901898877 0  -0.1591006558617752 -1.799092254611054 0.4138410682020805  -0.04681361121901211 -1.995389261734823 0.4985223211824886  0.4780196499422931 -1.718624147876173 0.4860276821231871  -0.2291981602613921 -0.9704387807865139 0  -0.4224459877560165 -1.246963081678484 0  -0.1715341369901447 -1.250280438524388 0  -0.06985643973039744 -1.505194664433397 0.523152896576856  -0.6681267201658774 -1.099552128393463 0.6661740090429282  -0.8234030488632201 -1.227864263700687 0.7971660546693747  -0.4956491309591998 -1.563380666785781 0  -0.570561261929752 -1.566210270682464 0.3269063393272681  -0.06425241373943445 -1.993671689601718 0.729857195431886  -0.04138279557917732 -0.9959241503885642 0  0.07147491772190356 -1.320431062428882 1  0.4566179955496571 -1.609390190456626 0.6989686505589768  -0.7913424350245954 -1.833874833437536 0.7298481380810278  -0.703769127003654 -1.86644453447963 1  -0.6141724175832546 -1.893623399144439 0.7648375940174668  0.5038238211581905 -1.074271211065006 0.5112063182307277  0.384799343308686 -1.090040125494568 0.2000785832607395  0.3833720884367542 -1.248266169376449 0.3125100964111098  -0.07109493962348024 -1.160016603803898 0.7913171746870674  -0.2070688864027299 -1.749288561046629 1  -0.3435919104164638 -1.966159150560913 1  -0.1572369759532961 -1.984513509578723 1  -0.4792183519131534 -1.094876157717112 0.5312084515566817  -0.4088784021612257 -0.9098780294493575 1  -0.2291981602613921 -0.9704387807865139 1  0.1055482849989484 -1.63881390081868 0  0.04658873361579337 -1.995411410245547 0  -0.3004712434665469 -1.361497103422282 0.2311894560585964  -0.3577107155310289 -1.419581028094554 0  -0.1397662008473739 -1.986234230736643 0  -0.8300753132502592 -1.509513793106689 1  -0.1714146569792246 -1.249399926207965 1  -0.5229419073512893 -1.071131864134972 0.1858598554011229  -0.5521062382202796 -1.211666613348794 0.3442023460192692  -0.7757759682717937 -1.842195283264316 0.4985126599772499  -0.7840616717201718 -1.583902828399041 0.4377923672640045  0.4296356271564918 -1.668302941522659 0  0.2329436680789611 -1.977057051227738 0  0.4181796157261328 -1.953077165598708 0  -0.2405080359740243 -1.976312026018243 0.3182654162986064  -0.04681361121901163 -1.995389261734823 0.2684782053199095  0.3259282302928228 -1.967898871204743 0.2276720692540216  -0.5245757081628545 -1.920802263809248 1  0.4437787684872145 -1.472384709319954 1  0.6936374543645428 -1.490116486267707 0  0.617899748202294 -1.653792821188109 0  0.3625909582016644 -1.44728628771407 0  0.6027785381133539 -1.359332156263882 0.2124371689903601  -0.3745805923603168 -1.706049989398783 1  0.3050541620145898 -1.223363442299307 0  0.5587472371219874 -1.203112900522971 0  0.02911795850987068 -1.997132131403467 1  0.02102039698148424 -1.670231480651327 0.6665040657880474  -0.5554583074974289 -1.700068917560503 1  -0.3793482891095545 -1.432319692681395 1  -0.6869697439873288 -1.871540571604282 0  -0.7580030332512193 -1.620602597475575 0.200800306043187  -0.04382570390722906 -1.692004976314984 1  -0.04138279557917732 -0.9959241503885642 1  -0.775775968271794 -1.842195283264316 0.2684499835474483  0.1477956984970681 -0.9854433942448714 1  0.1011187221479815 -1.772944272062136 1  0.5105785823554512 -1.583270420542069 0.3212501110323914  0.4598397724961487 -1.407027747603131 0.4646693967668116  0.2622963428434327 -1.552259734357269 1  -0.7625848589994415 -1.249272832911995 0.4545509433042903  -0.3261211353105415 -1.967879871718833 0  0.49198228108192 -1.930689371821647 0.5229837268563096  -0.670056525276606 -1.377886873936386 0.2250212001955873  -0.6240956319681428 -1.097419055583654 1  0.4999697403346577 -1.076876380065217 0  -0.5391031786369436 -1.386651023185445 0  0.3315216749971926 -0.9393992819363619 0  </DataArray>
</Points>
<Cells>
[...]
<PointData  Vectors="f_18"> 
<DataArray  type="Float64"  Name="f_18"  NumberOfComponents="3" format="ascii">2.2475043331714052e-02 -1.0473026332516860e-01 -8.1831180002587978e-03  1.5466421151137754e-02 -1.0029417950161293e-01 -5.3938071829616767e-03  2.4884491347056413e-02 -9.8560685024435782e-02 -7.0242557782846790e-03  2.0438856896785387e-02 -9.9976974061670110e-02 -1.3124247431150732e-02  -3.2004485935544176e-02 -1.0618026340746749e-01 -4.8843006739027993e-03  -5.1278703852465517e-02 -1.0282451162184605e-01 -2.3401515735277270e-03  -4.3166482018769436e-02 -1.1462019203082242e-01 -3.0480099058800288e-04  -3.9450189281680717e-02 -1.0281779026813102e-01 -8.1531226604395293e-04  -3.9939560634559036e-02 -1.2540081163790359e-01 -4.0321320080917147e-03  -2.9188432250534475e-02 -1.3358670483548951e-01 1.6681694621969118e-03  -2.9116671500399949e-03 -1.3009364412891114e-01 -3.5351608990291500e-03  -2.4668164657813393e-02 -1.1687359782590667e-01 7.3875437494756426e-05  4.0658874963141710e-02 -1.1245304394317743e-01 -7.0936998959170525e-03  3.2271206740698923e-02 -1.3089163064661435e-01 -1.0976354316117458e-02  3.9818554602028010e-02 -1.2457569832533333e-01 -3.8734255101043622e-03  1.7218856605279605e-02 -1.2181402539108657e-01 -6.0636841725153533e-03  1.9068437199450325e-02 -1.1806173425651044e-01 -1.2622724684083539e-04  1.5464510347463982e-02 -1.0901585728489678e-01 5.7003182967873389e-03  1.1510910088106610e-02 -1.2089164287770943e-01 6.5503491855047067e-03  2.9037294081581417e-02 -1.1577647781961685e-01 6.5011324342265989e-03  2.2759177421976282e-02 -1.3512168830017635e-01 8.3179558607527948e-05  -4.1813933540821224e-03 -1.3099146421137173e-01 3.9574543354989437e-03  -6.5761972821797412e-03 -1.4090357070002335e-01 1.6198953127417496e-04  -4.6182154390395094e-02 -1.5285278125331514e-01 3.0580600809767779e-04  -2.1992898987794243e-02 -1.5820158405247486e-01 -3.1514280358354899e-03  2.9880795278884410e-02 -9.7941430196347587e-02 -1.3333048573935470e-02  -5.1414068748246382e-02 -1.5000019375060245e-01 6.5155859877809655e-03  -2.5456390546348677e-02 -1.3827027636570349e-01 7.0552687456875915e-03  -2.1714057520010290e-02 -1.5750278514620664e-01 4.3071837256900168e-03  -2.2755934122588726e-02 -9.9017843827365448e-02 -4.9529186761219481e-03  -1.5745976240464997e-02 -1.0825103541893714e-01 -2.4369503990136049e-03  -2.7866411313062282e-02 -1.0341923730096367e-01 -8.5362812678906243e-03  1.6469250816451193e-02 -1.0695588051592136e-01 -1.4996732415889810e-03  1.3211895457247163e-02 -1.1167910711717133e-01 -7.6070374762257486e-03  1.5500132392218455e-03 -1.0684100817955230e-01 -7.9835649829333426e-03  -2.7696991584790304e-02 -1.0393042682465693e-01 7.2357016248027434e-04  -2.1909824928056980e-02 -9.8679328671919100e-02 1.8598859121323214e-03  -3.0315472487320857e-02 -9.6703755693543073e-02 -8.8310422773162816e-04  -2.2877789892488315e-02 -1.0323396229305977e-01 8.2150109312300879e-03  -3.4308345379766209e-02 -9.9958469426460680e-02 7.0805964951157832e-03  -2.6704849416310687e-02 -9.7606373254166462e-02 1.1862671762199323e-02  -2.1975013593310125e-02 -9.8631704670019471e-02 6.4293083117975937e-03  -6.3913793828059380e-03 -1.2014325427504186e-01 7.1900787006407060e-03  -2.0971005380760924e-02 -1.0754919762287350e-01 5.4697841406381549e-03  -2.7462986637335992e-03 -1.1232761710356166e-01 4.0695442706597850e-03  -9.8724037412277407e-03 -1.0602195710994737e-01 7.4318679620778063e-03  2.5503694909026673e-03 -1.0637851765850047e-01 6.9038953849124224e-03  -2.6649221910657623e-03 -1.0770999359030067e-01 1.1916723767433419e-02  4.3648469412085417e-02 -1.5303274773118866e-01 1.3598664032880659e-03  3.8461880865136064e-02 -1.5460452833456542e-01 6.3893296072372588e-03  8.1186469569261097e-03 -1.5921474431842803e-01 6.8486940861759869e-04  -1.6632918476215543e-02 -1.1947356066483998e-01 -1.1689715869901966e-02  1.8552371013611074e-05 -1.2004319963980924e-01 -6.7776366667440828e-03  -2.3653224456781177e-03 -1.2154757014104771e-01 -1.1603633808251829e-02  -1.0363855861905323e-02 -1.0999651475458765e-01 -7.3884666766407371e-03  7.0059288371805634e-03 -1.1475391801276871e-01 -1.1907539835309152e-02  -5.6530783094046501e-02 -9.0740631944892305e-02 -7.4444566509220605e-03  -3.8285073381174595e-02 -9.9770003822054573e-02 -7.6636864014273448e-03  -4.2936939217226133e-02 -1.0020213732708494e-01 -1.2235551272889292e-02  -4.5363564790175462e-02 -9.1546731397819547e-02 -1.2559598147371570e-02  -5.1199870993272181e-02 -1.5134382471536320e-01 -5.0889683505866866e-03  -3.3141404815449915e-02 -1.3912034699906806e-01 -5.8861868354094299e-03  -3.0790404105260859e-02 -9.6296683802260211e-02 4.2393648351374529e-03  8.5914732206184286e-03 -1.5926908277700580e-01 -5.0362910430129465e-03  3.4022573652054605e-02 -1.0061447445808501e-01 7.2118588678514867e-03  2.3193013373014520e-02 -1.0400152423401773e-01 7.7682741223038072e-03  3.0312298347950753e-02 -9.6661493278613161e-02 1.1951025717645345e-02  2.5255301698604023e-02 -9.8067567061242505e-02 3.9692807029701963e-03  -2.1331666673459295e-03 -1.4110046140629437e-01 7.1820678826496689e-03  6.5587272488539629e-03 -1.2979901826075047e-01 1.1171783249615654e-02  2.3264725434886273e-02 -1.5895991707424353e-01 9.7206392796458652e-03  2.0558514011272629e-02 -1.3678884690200871e-01 7.0049280314790864e-03  -5.4407543549718836e-02 -9.9903470180842474e-02 -7.3071512219961944e-03  -4.5516691276196432e-02 -1.1084574083141778e-01 -7.1418903931872385e-03  7.4072272890525767e-03 -1.5878804183347001e-01 5.7725906368659517e-03  3.8499070849411669e-02 -1.5498245049120996e-01 -5.0744855937611532e-03  5.0344842248424927e-02 -1.3463476203017091e-01 -5.9565228148141004e-03  6.7459787889967954e-02 -1.4456599315447957e-01 -3.4756732489729675e-03  5.3594324059634331e-02 -1.5158608008896324e-01 -9.5446417497611243e-03  -5.8573969527388789e-02 -1.0510486494468832e-01 -1.1444469640454084e-02  -4.2152735637063454e-02 -1.2366918221022458e-01 -1.0954549810385921e-02  -3.5904062197326433e-02 -1.0764428814735719e-01 -1.1762718477165474e-02  -4.6634588256441803e-02 -9.5950252468181327e-02 -3.6919762807314698e-03  1.0953878729765705e-02 -1.0178580973367932e-01 -1.3116517067517803e-02  -1.3215359056508360e-02 -1.0037309154998317e-01 -1.0045085476592774e-03  -1.3490291942110811e-02 -1.0070982313991621e-01 -7.1065519768746671e-03  7.6286872386535764e-03 -1.0112830699050872e-01 -1.1634761454317750e-03  7.1526648495150637e-03 -1.0112411085744204e-01 3.9696025675783142e-03  2.3599230067375626e-03 -1.0700528533558228e-01 2.5787346349035427e-04  1.6196870033679086e-02 -9.9710125814929357e-02 1.7072282063000906e-03  5.9498090139439887e-03 -1.0155057771656011e-01 -7.1733824478460518e-03  -1.5409299558659165e-02 -1.1836496426322503e-01 1.1792287503852118e-02  -3.1254707074645276e-02 -1.1048140793784644e-01 7.3944223526281119e-03  -1.3705068734622242e-02 -1.0836351246408357e-01 1.1764087867209940e-02  -1.6392771059275474e-02 -1.1805124848941306e-01 -5.4918701327567165e-03  -2.6825969953561093e-02 -1.2487152041853379e-01 -7.6124016174022018e-03  1.8344743028106181e-02 -1.3719714906020541e-01 -6.9766469676847635e-03  -5.9421490557588011e-02 -1.2794730896512116e-01 -6.2075206788544633e-03  1.7160831402649467e-02 -1.0767828193204479e-01 -1.2547976761933786e-02  -2.4774810406153553e-02 -1.0552175100225752e-01 1.1919593315282816e-02  -1.0074776831779644e-02 -1.0608677043171413e-01 1.7741671538555586e-03  -2.9965056602770362e-03 -1.0130615501867571e-01 -5.4097133472458291e-04  2.8841718913504951e-02 -1.0351954259870610e-01 -2.9354290369457082e-06  -3.7001760352222766e-02 -1.5533376893135276e-01 1.0272025421571795e-02  -4.2297900340224778e-02 -1.2290689491565067e-01 1.1617998510487003e-02  -1.9005738448167695e-02 -1.3302817624904240e-01 1.1092064232976699e-02  -6.0321193080003343e-03 -1.1852423032036799e-01 -5.4527522699998284e-04  -6.9173684375912869e-02 -1.1292747493225498e-01 -3.4372698683342072e-03  -6.7851973590231679e-02 -9.9833590967272692e-02 -6.6777262148157426e-03  -3.4403137646639208e-02 -1.0699150139583534e-01 1.1790555340723836e-02  -3.8637617732278445e-02 -1.0453004006657891e-01 4.1997024950450037e-03  -3.7028654490928979e-03 -1.0157699605407247e-01 -6.2457127483250266e-03  -6.5551780403066565e-03 -1.5901429025180999e-01 1.0788716831021025e-02  7.0513452210616469e-03 -1.3101573804420735e-01 -1.1016026803333594e-02  3.0391767333793923e-02 -1.0745309522788059e-01 -5.2189382418841163e-03  -4.0859400430000727e-02 -9.2896580759150901e-02 -6.0005647853788703e-03  -3.6557227779602325e-02 -9.5247119092161797e-02 -1.2746205096213558e-02  -3.1859922515195857e-02 -9.6412393910002975e-02 -6.8382912159051547e-03  5.9520321567464174e-02 -1.2720993727577218e-01 -9.1801792771942247e-05  4.7785578469239365e-02 -1.3454964697024382e-01 6.6981523352411827e-03  3.8418654890275211e-02 -1.2509073608085089e-01 4.2775520991985899e-03  -9.0723325288769134e-03 -1.4263508173520659e-01 -6.0448090331787531e-03  -1.3096408690184755e-02 -1.0809965015455730e-01 -1.2363762280443093e-02  -1.7940077985307636e-02 -1.0049654398512042e-01 -1.2834873532226423e-02  -8.5643751399581830e-03 -1.0174740357587646e-01 -1.2921548167344397e-02  -5.6330561231715093e-02 -1.2759191525648184e-01 -2.1197544301279823e-04  -6.5936169097823558e-02 -1.4714577673878759e-01 -8.5364789683390167e-03  -3.7200340170147700e-02 -1.5607389314410589e-01 -9.4489476023505124e-03  7.0025458645481186e-03 -1.1218366855183889e-01 1.1737932822868101e-02  1.8676775379629115e-03 -1.0110745452092222e-01 1.1961293068144462e-02  -2.7385858151953952e-02 -1.2178042217727134e-01 6.6083546669593613e-03  -3.0089465325067222e-02 -1.1717814378180445e-01 1.1776207949555704e-02  -7.7840879293293473e-03 -1.0091674623128023e-01 1.1933971822228551e-02  -5.3541095033440719e-02 -9.6342344884235195e-02 -1.1982415639242594e-02  -1.8328523379188867e-02 -1.3395497868189121e-01 -1.0572893237815148e-02  -6.1857432593823272e-02 -1.2542933015678873e-01 7.7386356948227807e-03  -5.3815186321068194e-02 -1.1719404389285083e-01 3.8523910779012030e-03  -4.0007185725315968e-02 -9.3003444921935199e-02 -1.4724670402072813e-04  -4.8502116140061134e-02 -9.6261790778934778e-02 1.4271180946513460e-03  2.7189200321574725e-02 -1.0599365830424687e-01 1.1846798551721875e-02  1.1481180189653309e-02 -1.0069155497586002e-01 1.1868314433404185e-02  2.0983545916099910e-02 -9.9065682433638502e-02 1.1921427934263762e-02  -1.2918313127465452e-02 -1.0033561898204457e-01 4.0933646469081784e-03  -2.9581813783386298e-03 -1.0107144290186931e-01 5.2093448639530483e-03  1.6135380701068052e-02 -9.9705278510127684e-02 6.2620272860718640e-03  -2.7242243764489971e-02 -9.8372706042930622e-02 -1.2828150146639848e-02  3.4204256122879778e-02 -1.1336326296344697e-01 -1.1923112932081115e-02  4.7537756655275328e-02 -1.0179753569699829e-01 1.1696360924672642e-02  3.7651498881660458e-02 -1.0101813340276478e-01 1.1707100899406799e-02  2.9011120054797175e-02 -1.1612990132941882e-01 1.1702168684728363e-02  4.8591633716735354e-02 -1.0951993659261319e-01 6.6467937922908612e-03  -2.3788857281031799e-02 -1.0666136319412753e-01 -1.2399579097085455e-02  3.2433666021629066e-02 -1.3065798872598372e-01 1.1214860189006613e-02  5.4614316063596090e-02 -1.1779059279416913e-01 1.1138906690938907e-02  1.0876693915515064e-03 -1.0214615776600933e-01 -1.3020655493642732e-02  1.2143760801942567e-03 -1.1176467701237390e-01 -4.2392971848492248e-03  -3.3969868892851758e-02 -1.0246702896112926e-01 -1.2290424082319212e-02  -3.1133593669697958e-02 -1.1708139632176678e-01 -1.1510543265727752e-02  -3.5805934778764856e-02 -9.4692427585953448e-02 1.1976911184741430e-02  -4.5899007822431628e-02 -9.6294199010855799e-02 7.2317568842823771e-03  -3.0313242457922981e-03 -1.1145581516095757e-01 -1.2298078222443741e-02  -6.3561568963455359e-03 -1.6022857653663783e-01 -9.4180989238217029e-03  -4.0087358968814185e-02 -9.2846322584018329e-02 5.4755809774377617e-03  2.4089245710088743e-02 -1.5935390473874322e-01 -1.0214723213485511e-02  5.9576691484816936e-03 -1.0838201883216322e-01 -1.2568120341042138e-02  3.4098256211624774e-02 -1.0636716737605055e-01 4.0397495774395012e-03  3.7288485560213504e-02 -1.1452691994002208e-01 6.0991232035204762e-04  1.9390473364252508e-02 -1.1503430557295601e-01 -1.2018984239580807e-02  -6.3641531660357548e-02 -1.0297386020440610e-01 1.3022021213369218e-03  -1.7300376739145709e-02 -9.9697522746625286e-02 1.1853841623933398e-02  2.4826770963545200e-02 -9.8341084648079585e-02 -1.2091270475851500e-03  -5.1744531604317585e-02 -1.0520207283036198e-01 6.5354762646742592e-03  -6.7189461583045409e-02 -1.1725088507592193e-01 -1.0747274993204308e-02  5.9233674671983483e-02 -1.2746481841410404e-01 1.1071346868199227e-02  -4.3876272507338526e-02 -1.1122313831630795e-01 1.1625269176378236e-02  5.2479012369923118e-02 -1.5045488374264790e-01 1.0809841735157069e-02  </DataArray> 
</PointData> 
</Piece>
</UnstructuredGrid>
</VTKFile>