<?xml version="1.0"?>
<VTKFile type="UnstructuredGrid"  version="0.1"  >
<UnstructuredGrid>
<Piece  NumberOfPoints="560" NumberOfCells="2231">
<Points>
<DataArray  type="Float64"  NumberOfComponents="3"  format="ascii">-0.437270184892133 1.130513867865045 2.464959339784276  -0.1575558557429018 0.9844821026607427 2.300451209289574  -0.4996568060159496 1.207304284946449 2.211354531507026  -0.2218701063947696 1.271394036010528 2.376303590739145  -0.03213356612173944 1.488878780354482 0  -0.3070823851255919 1.60444108748354 0.2883595889737436  -0.04306337502264126 1.710823204504154 0  -0.2557335102430105 1.704794466024258 0  -1.365668187016484 0.9299040139860805 1.367410651434479  -1.201748691628636 1.207072052806315 1.289441114246246  -1.092520398536819 0.9703544734333222 1.276302537679984  -1.465055270517109 1.000012001635756 1.147846198214053  -0.2967726742171207 1.45008703957925 0.5524522132634159  -0.6434887749968319 1.482298065117458 0.3762371640162411  -0.4239378236407559 1.157590678344242 0.2544789876954237  -0.257779200723075 1.408996539962001 0.9003453641819071  -0.449287289247648 1.401735488301874 1.07854318826235  -0.3604156621198063 1.181682748976093 0.8516920471286565  -0.1567954956475845 1.268824098264383 1.086696983274594  -0.9847724872443645 0.7253991145725994 1.018214856799495  -1.194979136873971 0.9101429222428052 1.043890337845854  -1.097355000557124 0.7122318174845157 1.314876825740661  0.8776240038601382 1.468533760046266 1.693262756890803  0.9802711282238878 1.732890343021883 1.862459179955113  0.7730058713148853 1.843675930935447 1.893038983865374  0.74933335755538 1.547164680476453 2.062818974539214  0.9184226498440161 1.155749859749666 0.5990761661345709  0.9961579193758268 1.462281686930205 0.6246492917812876  0.7314204854759964 1.319570469529748 0.6591793876373161  1.077168197567472 1.22108614020189 0.7886821271081074  1.054936037662884 1.08774886345209 1.371195246126525  0.9558336858219978 1.133613571114183 1.140304209729167  0.7083532190588375 1.191059551730258 1.261319898859603  0.8622242424817076 1.383528502923412 1.39722733100139  0.6276565609536849 1.650471846478252 2.481014272479831  0.6982569277950104 1.512730450876753 2.683434601686926  0.386290996156984 1.626336376880996 2.680975028272746  0.4396671035871068 1.286801682662964 2.649254564270347  -1.064506829054958 0.7861841663411067 0.3270252259291584  -1.087239001855617 0.5563257064680588 0.4941250173552131  -0.9988230818911844 0.9111847969579145 0.7169703928595901  -1.298438048856282 0.7367059447332647 0.5584051522296656  -1.070836665993841 1.684482054550472 1.566742130239395  -1.149270546462357 1.310703286584161 1.538663817668312  -0.9291575857237597 1.369213819560088 1.657448002375269  -1.269036393401747 1.533357385860429 1.584097004581615  1.392011908179745 1.43243398909089 0.4493313746711375  1.21583844477272 1.577015814015864 0.3132095878859946  1.215838444772721 1.577015814015863 0.7984919644564699  -0.5417914275481509 1.915579932427804 1.976213206297545  -0.8661308487873942 1.793899593441225 2.139898547378747  -0.4825469010551162 1.604778739237976 2.248606286116285  -0.5675414029076532 1.907768762799528 2.310604154105008  -0.6172573039521845 1.527663012585014 0.7568115375211687  -0.7241902094970518 1.860249866829585 0.5970171058409584  -0.7957056313745388 1.831542656400152 0.968695686484855  -0.4952605943774011 1.929694906355637 0.9453922269623236  -0.4884387264115697 1.139099113654056 1.126544463557179  -0.3062210261879658 0.9470741498457549 1.074219080140319  -0.9147073268807377 1.484424848781805 0.7088302423512367  -0.8498613270000585 1.483589061793089 0.9802076404296851  -0.2853549673443926 1.700886913653027 1.104138889279388  -0.2123882240535232 1.482184289043645 1.225617616727049  -0.02658809131062503 1.54954966453752 0.9999642928133845  -0.05886255948931285 1.740941905347605 1.262820980185163  -0.2138865254896242 1.717515417693679 0.5093261615003483  -0.4978026593669764 1.928923779371535 0.3776131738685569  -0.4749235197066546 1.671109030984674 0.5112323363784802  0.5759691911674569 1.379913410543353 3  0.5772402525064116 1.668048186229646 2.797497383652546  -1.631177197183697 1.149842608431994 0.5529837297134703  -1.312281776542028 1.049838637110655 0.6975454133751749  -1.416175508879305 1.051966082818243 0.4695970894849926  -1.468611635051501 1.347929319029267 0.528793610027684  -0.3532137397153774 1.648140941155261 1.686515757151375  -0.5675414029076709 1.907768762799523 1.641822258490084  -0.5946428181805948 1.54027895207176 1.89110289129796  -0.6563813884835905 0.7487360351343193 0.2787263624334433  -0.5667951625134506 0.8222575507383968 0  -0.7393489966610659 0.6678195279580799 0  -0.8674026472112387 0.9845104035481604 0  0.06228957929729534 1.763069020072102 0.9047605796749927  -0.01962555268867489 1.676227591432309 0.6849834654445722  0.2664856022096764 1.97375345906389 0.6769169287588106  0.3465300909440658 1.724729685604465 0.7135143331565388  -0.1858556935836433 0.9816948119170279 2.090314465585877  -0.3754279745754614 0.9260804515698235 2.013272307849831  -0.465967646250635 0.8793631927405553 2.363944234338541  0.5280529490250396 0.8461779070287594 1.879649787229252  0.7585124449030545 0.6444687987127938 1.617029807396295  0.500529746322371 0.8608893653703668 1.650796209957878  0.7030633448670989 1.021784321691119 1.759469098116709  -1.088686500193924 1.228593341630049 0.8863724562223012  -0.8254687922103758 1.236073256804179 0.6182246954994589  -0.07422757993891599 1.99268922148401 1.807460490734439  -0.04088525360617973 1.611212491846854 1.799941109133811  -0.2916418845632132 1.971275781511641 1.626758869038753  1.031766936443343 1.348283730697958 2.231342139160024  0.5985916833979833 1.188865338374242 2.184453435212432  0.800035887802124 1.513475040829179 2.352763204437822  -1.454001653846959 1.365731632635776 1.144642798574309  -1.606093854539396 1.180406749877606 1.250643688654142  0.759913133020082 1.035194937356971 2.333082585620538  0.7866876774335634 1.247079743530873 2.481715775958462  -0.5993538927977279 1.671856462584716 0.2274587724711168  -0.3970022116813246 1.959501260883113 0  -0.615292376451025 1.893283663336124 0  -0.0115970006368884 1.619661669778449 0.3674377621007673  -1.550860895813692 0.7743665571272234 0.6777793944735439  -0.6182587514821932 1.165370958219697 2.665290015038481  -0.7320725407980028 1.004497893960526 2.803796425403525  -0.7524293328985826 1.294280350741342 3  -0.9007277826353122 1.175814812694896 2.78884082742388  1.217261294322629 1.239502799576163 0.548585554698337  0.5398556083925942 1.108033836437006 2.451290255513662  -1.184565319612744 1.293675404619523 0.2202905124775362  -1.215838444772743 1.577015814015845 0  -1.392171882639736 1.432302701444501 0  -1.304005163706239 1.504659257730173 0.3254551914054048  -1.613044292607511 1.171937616587227 0.2971828751737157  -1.07715122928555 1.023555929625641 1.577076441888355  0.06419369235251568 1.225727509717291 2.453663304648281  -0.142574953272563 1.324806371060606 2.664518380891937  0.1481648227724792 1.271966546074806 2.72659392302712  0.1383367287699395 1.48654129520398 2.510062434088135  -1.501397742985334 0.8632673176568763 0.9405261858769782  -1.573174139018967 1.220519539300602 1.043890337845853  -1.305770183688084 1.16074792136184 1.039247410740563  1.127012452169609 1.649913422219541 1.695878052335813  1.008490171445048 1.717806950174296 1.461210836656988  -0.7494591463662317 1.613341355000463 0.5618157337620006  0.5251954187041239 1.502210039554575 0.3672943657036651  0.4169176159719862 1.268399547679171 0.4595456322107094  0.3514414906492516 1.417214237308218 0.2032825020734149  0.4424104725296565 1.133702607012028 0.2226731490322834  -1.00193631029461 1.481942181374718 2.75782293884803  -0.9854046110177546 1.73014643930235 2.523996521787849  -1.169012044660419 1.615445247438886 2.628292977551654  -0.985404611017755 1.73014643930235 2.73258943331546  0.6052985902680665 1.595631930509519 0.6450910128899614  0.7910476264195203 1.834032411919922 0.5388597629756304  0.6152923764509963 1.893283663336133 0.372472755438345  0.6152923764509992 1.893283663336132 0.705246770512919  -0.3062657882747472 1.648452071402617 0.8304665595928332  -0.4855865343507064 1.932629500381754 0.6286242734478376  0.7054437928571102 0.7084715604379123 1.933662416831976  -1.507328219677138 1.300753024164202 2.713336764402187  -1.165230715369792 1.205390575913933 2.689956132617993  -1.353416411825071 1.464108494370675 2.657241558346083  -1.436824986212379 1.386661462706364 3  -0.4979902395803728 1.678489304391771 3  -0.3963861489300569 1.651359416569772 2.700919976322254  -0.6185480316536364 1.683538496070085 2.764379096909264  -0.458396320522803 1.940877561573022 3  0.9530377358237719 0.9485576382829037 2.633905012019921  0.7356486580402359 1.003585213642121 2.784331418652878  0.7327145285287133 0.9602672604058995 0.9486177248287717  0.5344025260205703 0.8427839874160714 0.7878723257084586  0.4277494794611242 0.8997912284851736 1.035565639850067  0.6275104760499441 1.204798490702922 0.9921227376697574  -0.8902940105440038 0.9268628400035885 0.4731239699058822  -0.9776546061793429 1.008446268592044 0.2385980248694552  -1.156033771372998 1.098512560732226 0.3961799307077474  -0.7036434369288257 1.316482796637038 1.765323971810743  -0.7896227738217378 1.26606967100422 2.000569561053651  -0.9671165878588903 1.182630135800516 1.832231915196073  -0.6810565915542988 1.016669733136022 1.936667150823691  0.4373821781832744 1.172013029441896 1.175775162288291  0.5012785776910673 1.390458179553204 1.314161706832298  0.2714158791222486 1.659971775591717 1.705214535700857  0.4591243388667474 1.694941713426531 1.523356646315397  0.2496342166345127 1.9754131756777 1.610848910284687  0.4883261183152516 1.931798456671645 1.804979252832438  0.1713655010773994 1.239539359313271 0.830658565227589  0.206312465890568 1.511600485836241 0.8856669166948175  0.2493015756192 1.322778751398718 1.062429438019509  0.4184073581581774 1.215358561019962 0.728034
[...]
<PointData  Vectors="f_18"> 
<DataArray  type="Float64"  Name="f_18"  NumberOfComponents="3" format="ascii">-9.7977177753850835e-03 2.4551804388872323e-02 -7.3225509369203518e-03  -4.9432114747347683e-03 2.9957346804859817e-02 -7.2271664377176036e-03  -1.0166819447439248e-02 2.3728886606884464e-02 -5.1210421827624147e-03  -4.7215270441326182e-03 2.5303381638089009e-02 -6.3713413284030886e-03  -8.6949863910994608e-04 2.0573239210911715e-02 8.9395197542749567e-03  -4.3035162848918326e-03 2.0704632004901486e-02 6.6903897891399423e-03  -8.2810548000165224e-04 1.9074298747976611e-02 7.8220429883702688e-03  -3.0970506012652364e-03 1.8813099478571346e-02 7.7232358724673138e-03  -1.9164457998258316e-02 1.3036868672996129e-02 8.4647991152068535e-04  -1.6101629475991509e-02 1.6133126133005014e-02 1.3405529636806575e-03  -1.8493909861974717e-02 1.6437703687271873e-02 1.6679178226470608e-03  -1.8188474477458968e-02 1.2363394866604423e-02 2.0339867665726281e-03  -4.9990961081275405e-03 2.2786051995790691e-02 5.9626072036300624e-03  -8.7265288493953690e-03 1.9839456322411804e-02 6.3636346911200362e-03  -8.8439639498765852e-03 2.3435548118861692e-02 9.2025770321237602e-03  -4.7612577909189437e-03 2.4284186089631371e-02 4.0653303092617896e-03  -7.8034632168908352e-03 2.3301581163818655e-02 2.7558209048804141e-03  -8.1270859853420641e-03 2.5812915104221065e-02 4.9437328405773449e-03  -3.7273525715598109e-03 2.6359550388039180e-02 3.1226790330406442e-03  -2.2032065617682135e-02 1.6265502200365784e-02 3.7377922524518461e-03  -1.9161564644650454e-02 1.4605639355240955e-02 3.1300709773634675e-03  -2.2172780689220978e-02 1.4366330169135872e-02 1.4413906193217452e-03  1.1115303112229193e-02 1.9362424386075577e-02 -1.0737330461561083e-03  9.7920423446742882e-03 1.7933609207586122e-02 -1.7193517007257654e-03  7.5561609859345069e-03 1.8982579145490980e-02 -2.0094476232498477e-03  9.2905954654866774e-03 1.9916325896177887e-02 -3.2034880117882991e-03  1.4173389899969215e-02 1.8350417813015659e-02 5.6737054875850446e-03  1.1322663882434818e-02 1.7621109807880207e-02 4.6575642147879195e-03  1.0843036298794032e-02 2.0274803042837967e-02 5.2403778579048288e-03  1.4493722957829965e-02 1.6951654964963210e-02 4.0708133040852461e-03  1.6248828550135860e-02 1.7400502234877338e-02 6.6366282938530162e-04  1.5157614836782350e-02 1.8603095609988119e-02 2.2461076843100355e-03  1.2613526830527674e-02 2.1890717143970943e-02 1.6489503571717834e-03  1.1866955508540861e-02 1.9813892764233558e-02 6.9520067229490181e-04  7.1174435389278999e-03 1.9508305614790663e-02 -5.1605069037525906e-03  8.3475694841688586e-03 1.8862309077375797e-02 -6.4954303022084084e-03  4.4916444717955709e-03 2.0341931564683381e-02 -6.4529342917901298e-03  7.3696192558210813e-03 2.2527821294745679e-02 -7.7630709266742681e-03  -1.9541462634502627e-02 1.4443857192336462e-02 8.2686552567224712e-03  -2.3356183466127955e-02 1.2082261202276907e-02 7.8182305467443952e-03  -1.8686890038943211e-02 1.6949553300842867e-02 5.6050790490448678e-03  -2.0226052837604570e-02 1.1512002530878224e-02 6.0089689349983868e-03  -1.1374058577081512e-02 1.7658732738311266e-02 -1.9019875643334636e-04  -1.4967672967699852e-02 1.6901783345774749e-02 -5.6628871864324830e-05  -1.3194505065375020e-02 1.9080584130953072e-02 -8.4779190111426760e-04  -1.3491621532985332e-02 1.6093654918039595e-02 -4.1848056867832068e-04  1.2873051314306773e-02 1.3998943767810048e-02 4.6705586575654873e-03  1.0904346978491106e-02 1.4830826108149554e-02 5.3023141145119978e-03  1.1818685838292891e-02 1.5980969537850213e-02 3.3314537412721299e-03  -5.7478931217779241e-03 1.9824204485391596e-02 -2.1594453585597230e-03  -9.0014652632322972e-03 1.8149539349053029e-02 -2.9428414299759497e-03  -6.4667434822533124e-03 2.1321378944394159e-02 -4.1405687018665257e-03  -5.8349859044330397e-03 1.9118417405830496e-02 -3.7607659388107203e-03  -8.5210712190208846e-03 2.0880593139995383e-02 4.3763886670799366e-03  -7.3768307870230119e-03 1.8463024506709860e-02 4.2964478701399316e-03  -8.4803571628992540e-03 1.8771315068483015e-02 2.5773638441327499e-03  -5.4004495243340309e-03 1.9802741915950550e-02 2.7182211212837030e-03  -1.0831514985010528e-02 2.4933197924050129e-02 2.8361403276902469e-03  -1.0045838504882927e-02 2.9704639321053709e-02 3.7666845442975482e-03  -1.1441099449689979e-02 1.8421337491547611e-02 4.3816735368725213e-03  -1.1421801781008125e-02 1.9324206456439650e-02 2.9280168205070805e-03  -3.8420934380924993e-03 2.2101531426762216e-02 2.2271951206007234e-03  -3.7978808993354607e-03 2.4137688961885090e-02 1.7503342110692403e-03  -7.3835829234941968e-04 2.3588297461281906e-02 3.1822955850189859e-03  -1.1286489310260391e-03 2.2279520016521229e-02 1.5141595705129235e-03  -3.0274274062628281e-03 2.1050627565659709e-02 5.4315362696106696e-03  -5.0922776611668922e-03 1.8458362606231331e-02 5.1047464446464874e-03  -5.9497442695401340e-03 2.0280685577444252e-02 5.4486941122945543e-03  7.4993194486584714e-03 1.8882338351458562e-02 -8.8728109811163861e-03  6.1649450432633892e-03 1.8571092099856957e-02 -6.6507701628885224e-03  -1.6175907605494318e-02 1.1355959806169890e-02 4.5097232213106870e-03  -1.7312255187926874e-02 1.3862214930949092e-02 4.6214659956388552e-03  -1.6875846445573724e-02 1.2454277176978572e-02 5.5550571180087386e-03  -1.4587998737645210e-02 1.3280080434681823e-02 4.5526211173268173e-03  -4.9922232549399360e-03 2.2139462241349085e-02 -1.1366460591153817e-03  -6.1569023140738968e-03 1.9854098133212969e-02 -5.7190832669880200e-04  -8.4024655507755064e-03 2.1302143862313033e-02 -2.2888918457406671e-03  -1.9241203293487701e-02 2.1546693280494598e-02 1.1139017190367377e-02  -1.5340154874567805e-02 2.1861119976603043e-02 1.3439508495392192e-02  -1.9805258339116682e-02 1.7928721063793038e-02 1.3401165695317761e-02  -1.5004540907360898e-02 1.6816894217718370e-02 1.0232920067930314e-02  5.5403928968250724e-04 2.1972735966016895e-02 3.1896009805093433e-03  -8.0161160164463150e-04 2.2063655111471892e-02 4.5979927254794755e-03  2.2657713732946016e-03 1.9894166870397488e-02 3.7591097401377740e-03  3.7030153244032487e-03 2.0977111267934577e-02 4.2329358821115532e-03  -6.0615160543036608e-03 3.0369989752744717e-02 -5.3798111887087691e-03  -1.1832406207527403e-02 2.8850319767394071e-02 -4.4982513925215526e-03  -1.4096730861739586e-02 2.6644589836251901e-02 -7.7241791971860803e-03  1.6205717793118961e-02 2.6282982832900259e-02 -3.4901556071530167e-03  2.3364462829267203e-02 2.0311401362940368e-02 -1.1783069240855072e-03  1.5287562271196365e-02 2.6809424867502554e-02 -1.4358023816550733e-03  1.4768312688843720e-02 2.2357695932660206e-02 -1.9752888321446114e-03  -1.5231882778795813e-02 1.6947773186117763e-02 3.6153518810070418e-03  -1.3183196293498395e-02 1.9514130610398969e-02 5.6556112951299774e-03  -1.0649029719882062e-03 2.0604715556475438e-02 -1.4144386433757735e-03  -8.3017576189105627e-04 2.3397021031859831e-02 -1.6558502092524298e-03  -3.3702954829849560e-03 2.0554282314179998e-02 -5.9779083800739997e-04  1.2933134890927322e-02 1.7464408280457394e-02 -4.1471207183561174e-03  1.1001949464754975e-02 2.2658471040700869e-02 -4.8898778625580995e-03  9.6953745252118823e-03 1.9049112331465751e-02 -4.7806410135901208e-03  -1.5186646081029168e-02 1.3981122026093695e-02 1.6818270872007654e-03  -1.6766853324836056e-02 1.2222098779416449e-02 1.3190639335445352e-03  1.4862427404765573e-02 2.0824307962389228e-02 -6.2301836276566639e-03  1.2124102077168826e-02 1.9677557822920803e-02 -6.2211757244857819e-03  -6.9742701612059456e-03 1.8598793979474226e-02 6.5345360432372511e-03  -3.8108094767197245e-03 1.7210528099514767e-02 6.6413023872319453e-03  -5.7210901152263804e-03 1.6768887202786357e-02 6.7623523895256419e-03  -5.1315571434789079e-04 2.1548082146086615e-02 6.4402055197954255e-03  -1.9395404248990195e-02 9.6208295259195397e-03 4.6373665462229397e-03  -1.1518205702206009e-02 2.1418110005645769e-02 -7.9268575055701767e-03  -1.4528711268143335e-02 1.9854759979414851e-02 -9.4265652305442985e-03  -1.0396200102941714e-02 1.7751172782962593e-02 -8.7897406728638956e-03  -1.3394597202426098e-02 1.7396421246107876e-02 -7.7111402110811205e-03  1.4334573652819463e-02 1.5239818672570892e-02 5.1327097097549146e-03  1.0965908734543506e-02 2.3430876947725856e-02 -7.2700087188230303e-03  -1.3617777086573963e-02 1.4649257658287975e-02 6.6842368735142068e-03  -1.1040424760155165e-02 1.4019970886268279e-02 6.7587093601730102e-03  -1.2480989748068612e-02 1.2730605862911899e-02 6.8386519242727420e-03  -1.2462066990444194e-02 1.4324472014073511e-02 5.3990018202800024e-03  -1.5362131190571924e-02 1.0966273737480874e-02 5.5727867420179928e-03  -1.7793242641592596e-02 1.6894187547059302e-02 -4.6009840338244863e-04  1.1285987307359088e-03 2.6212075431738698e-02 -7.2514248768835452e-03  -2.8018643883599968e-03 2.4056755088348508e-02 -8.0060896051398333e-03  2.6105435556381829e-03 2.4411004972719749e-02 -8.7026098892415051e-03  1.7925619550746665e-03 2.2771904715226249e-02 -6.3410538069934505e-03  -1.9122542576213007e-02 1.0969118461207589e-02 3.1375789968537456e-03  -1.6175807507246329e-02 1.2532329138364712e-02 2.2575040763224380e-03  -1.6576905906593258e-02 1.4545754944371001e-02 2.6473059563129589e-03  1.1300894098501657e-02 1.7111022778996111e-02 -9.5348360956784063e-04  1.0121122871095182e-02 1.7952109109342782e-02 1.5884634809697228e-04  -9.0570198297291061e-03 1.9094189900427602e-02 4.9812025957558142e-03  6.7168404906584669e-03 2.0516855048492003e-02 6.5809022178962848e-03  7.2569755200027359e-03 2.3412635717368610e-02 7.2237227168726959e-03  4.9081169772014306e-03 2.1548461298149003e-02 8.0244291779491220e-03  8.5858615556366844e-03 2.3243639553623529e-02 9.5357236385079560e-03  -1.1172499713804985e-02 1.6298377649006074e-02 -6.2286674513129282e-03  -9.7286837481714433e-03 1.6935984613314376e-02 -4.5448150300921534e-03  -1.1319669192172362e-02 1.5387270439115976e-02 -4.9571038633090571e-03  -9.3416700622136906e-03 1.6291265519589274e-02 -5.4531929207574199e-03  7.3020208545860853e-03 2.0161303466340808e-02 4.6740613321091728e-03  7.3475521690855279e-03 1.7959424979739957e-02 4.3604364792943001e-03  5.4688452779381447e-03 1.8122283446080186e-02 5.0965582643858528e-03  5.6915294435066349e-03 1.9011820949239356e-02 3.5660292654237729e-03  -4.4358336237874029e-03 2.1838404471159485e-02 3.9252555072555274e-03  -5.1560912593930702e-03 1.9395672604498381e-02 3.9956128377797830e-03  2.1451896045722552e-02 2.2162781601756439e-02 -3.7804677751232018e-03  -1.4317116053476492e-02 1.2270273831306111e-02 -5.3406185964972293e-03  -1.4531748102497353e-02 1.4927332558196503e-02 -6.4231617963522586e-03  -1.3002855581493982e-02 1.3886491558757621e-02 -5.1375212319007104e-03  -1.2742097171100034e-02 1.2296915185901876e-02 -6.5240047530491256e-03  -5.5244106161039105e-03 1.8104957549134611e-02 -7.5764010994234165e-03  -5.0978064124873627e-03 1.9997305510034018e-02 -6.3632769084550310e-03  -6.9779311742475319e-03 1.8404808198279554e-02 -6.3671474066338343e-03  -4.2126807505298786e-03 1.7162965827654496e-02 -6.6603728832256683e-03  1.6680408870977652e-02 1.7054094338971700e-02 -7.6808256826464000e-03  1.4102049208041655e-02 1.9897522411182492e-02 -9.4357254884665284e-03  1.6023447828724495e-02 2.1811156265120889e-02 4.2670707249085095e-03  1.5521974869715247e-02 2.5881154886302250e-02 6.4660961766079385e-03  1.2739737827693240e-02 2.8423879237129124e-02 4.3889858543839479e-03  1.1081757792402346e-02 2.2783348982424560e-02 3.5533461104015236e-03  -1.7690378050707938e-02 1.8218307964672956e-02 7.4315289340117496e-03  -1.6027647102996846e-02 1.6414979501752611e-02 8.2150992519426386e-03  -1.5970174183355793e-02 1.5008999967665226e-02 6.4817144606217200e-03  -1.1702268182367191e-02 2.1477591383261500e-02 -1.6706302670633697e-03  -1.2933913977684400e-02 2.0431559976654984e-02 -3.1377632414554689e-03  -1.5327242442574511e-02 1.8535227060356839e-02 -2.1337190349334264e-03  -1.5403310079664615e-02 2.2778481699034171e-02 -3.5322177615619149e-03  9.0248258987469035e-03 2.5377644214259042e-02 2.5777939664184952e-03  7.9744758775201052e-03 2.3030542876788469e-02 1.2449133911067271e-03  3.3184639157025804e-03 2.2488741846458587e-02 -1.2626344031537952e-03  5.4773839426777013e-03 2.1447879187010056e-02 -1.3354502606311707e-04  2.3881223173035184e-03 2.0739583395341630e-02 -5.3358902838398820e-04  4.7798122729151502e-03 2.0062270089737842e-02 -1.5060521488146710e-03  3.2021334810647143e-03 2.6426820199727957e-02 5.1480398848409367e-03  2.7758591697059007e-03 2.3502796264919062e-02 3.9602553608572913e-03  4.4538015620341435e-03 2.5322581057124781e-02 3.1227390038648102e-03  7.8681193966266653e-03 2.4535064769540149e-02 5.6838788464637158e-03  6.6348600522808492e-03 2.1938601015128432e-02 3.3469928099684946e-03  1.1014889264920934e-02 2.7586780969998229e-02 8.4842064453186355e-03  5.4744151598137810e-03 2.8531039373476317e-02 1.0254552469363796e-02  1.1563585354603756e-02 2.5994505326703353e-02 1.0908278603444371e-02  -1.2849318585516205e-02 2.2184437173227704e-02 4.2267672797949071e-03  -1.7587471942899141e-02 1.9338422455780817e-02 3.4096595972480858e-03  -1.4061265779262136e-02 1.9628704966633628e-02 2.0333281272623040e-03  -1.0246541627081026e-02 1.9404488054716468e-02 -3.0245131767237562e-03  -1.2665929352358878e-02 1.7960327151561907e-02 -2.4201904779598089e-03  5.7168075842098038e-03 2.1357800575620631e-02 -2.5944551904640008e-03  4.2312545734377359e-03 2.0582970555869880e-02 -4.9406672262238219e-03  6.9016552492651940e-03 2.1676608418407326e-02 -4.8988748381898727e-03  4.6161372745677394e-03 1.9971258947066077e-02 -2.9491546306056960e-03  -1.3557064795018765e-02 1.5084633962006634e-02 3.5949138521213044e-03  -1.3560491666244187e-02 1.7347221250906420e-02 2.2206550695292242e-03  2.0924603538147969e-03 1.7401203715156386e-02 6.6352904536896833e-03  1.1047912445823198e-04 1.7675777062107639e-02 6.7514358015186007e-03  1.8454073249694689e-03 1.9902113302029543e-02 6.8121070748224403e-03  -5.1607604219063323e-04 1.9943847579300157e-02 3.9172809864636716e-03  8.3869557770655998e-04 2.0318367393136576e-02 3.2440768153973918e-03  -3.0724273396366642e-03 1.9247237781886407e-02 4.7467347151585364e-03  -2.9038604261294953e-03 1.9867271484972419e-02 3.5913311243498652e-03  1.0400130133560946e-02 1.7309371009449789e-02 -2.8643735341796861e-03  7.2488326929066385e-03 1.8396898178949874e-02 -3.6832519551446528e-03  8.8597142454961871e-03 1.7324892677497941e-02 -4.4092835282037368e-03  -1.1337744841918573e-02 1.3573281383663899e-02 -6.5804919513238217e-03  -9.7704489378634095e-03 1.4802909662781026e-02 -6.5731644645926580e-03  -9.8804972739402232e-03 1.8233165764932908e-02 8.7632388845515202e-03  -7.2733876625015832e-03 1.7763818479861349e-02 7.8328664148045440e-03  -9.6028625372145023e-03 1.7509286405268273e-02 6.4110599432620850e-03  -9.0490350650975686e-04 2.0480808289804257e-02 2.7879129759427732e-03  -1.3895676533563085e-02 1.6397299551123342e-02 4.9927947094603829e-03  -1.1139289922688476e-02 1.6082891403902986e-02 4.6464071280355700e-03  1.9409584605675791e-04 2.3890981640796737e-02 -3.3084584686844851e-03  2.0096179741756308e-03 2.2060554809787622e-02 -2.5777053735716294e-03  -1.0739587349298744e-03 2.1926045025926655e-02 -3.1695899271214816e-03  2.4819933575402518e-03 2.1947755284092412e-02 -4.1154527944862931e-03  -1.8018382152816836e-03 2.5887973625028857e-02 5.3638265103222648e-03  1.0993692720537468e-02 1.5717248426664065e-02 -4.5711066054205784e-03  1.1276991209944414e-02 1.7258272443946451e-02 -5.5148827138655834e-03  -1.6272867706129505e-03 2.4523422781855445e-02 4.4763648343059607e-04  -3.0776781970044955e-03 2.1808333850987467e-02 2.1205960112248519e-04  3.2421341180505919e-05 2.2529088708378539e-02 7.8296746179210892e-05  -1.5201294780986545e-02 2.2220831942969754e-02 6.8430367629330417e-03  -2.6044662821534705e-02 1.7607512276903603e-02 -5.7651792815811040e-04  -2.3582120278336997e-02 2.0319278864289934e-02 1.7420838342592003e-03  -2.1933180845941549e-02 1.4844944601234276e-02 -8.4548799301426697e-04  -1.9045711131944549e-02 1.9356571679053500e-02 -1.1601047582302979e-03  -6.6563076757367627e-03 2.5541247527343044e-02 1.0678605563818463e-03  7.9149058829553406e-03 2.5136718799836696e-02 1.3644059047570682e-02  -7.9467818343242468e-03 2.0558647812983982e-02 -7.6129811081347195e-03  -7.6741872454961606e-03 1.7531280529057384e-02 -7.7713752801782578e-03  -5.9039062283966883e-03 1.9248937560960008e-02 -8.3105589174562559e-03  8.8120912892775247e-04 1.9735967398389898e-02 -4.0956803277251144e-03  3.0337573363713069e-03 1.9145886054260878e-02 -4.5808531695536378e-03  -4.0751879162683980e-03 2.6980135748964188e-02 -3.5617815344299673e-03  -3.6373205271315180e-03 3.1003571730761379e-02 -1.4203899469292494e-03  -1.1445301792202095e-02 2.9148064272314134e-02 -2.1139901504282719e-03  -4.8865201337883000e-03 2.5677763107262566e-02 -1.3399008832105060e-03  4.0248577110898534e-03 3.1109459684851657e-02 9.8765465960986534e-04  2.2438191095190182e-03 2.6496913119573674e-02 1.3687226910100540e-03  -6.4812792328575739e-04 2.7197889896453060e-02 -4.8442278315141230e-04  4.4870984024002695e-03 2.5266269992710547e-02 -7.0559449859904945e-04  1.7259379770741136e-02 1.8890126056107855e-02 5.7221056710101510e-03  1.3269834251561401e-02 2.2556033470570929e-02 6.9145559568912166e-03  1.7927372844019945e-02 2.3356075202820448e-02 8.7122152111496279e-03  3.2591070740063803e-03 1.9419254469343752e-02 -8.2260997837206324e-03  -1.5610185752071253e-02 1.2571974077733713e-02 6.6373215533995509e-03  5.9649515106680508e-03 2.9081586819834155e-02 -8.7888396887774150e-03  3.9448978870715457e-03 3.0135631683232484e-02 -6.3982240091967563e-03  5.8619434259834426e-03 2.4917927809156627e-02 -6.0658017810217586e-03  1.1602525219771471e-02 2.7814941743676526e-02 -7.2679180245060282e-03  9.6180451125185522e-03 1.9244398604908459e-02 3.8090434457157519e-03  7.9862700593469806e-03 2.0101831711454500e-02 2.2517135569660165e-03  6.7111565074977680e-03 1.9239758406062873e-02 2.6158643007842979e-03  7.2644222716335442e-03 1.7063203156179478e-02 5.4228021961964107e-03  9.2995548690093729e-03 1.7976147887366050e-02 6.5213063988848264e-03  1.2581735141035491e-02 2.0379122731771410e-02 -2.5747451186431294e-03  1.4776566190756513e-02 1.6961658932664516e-02 -7.2766846962132967e-04  1.1100987119689352e-02 2.1767589911308911e-02 -1.1520353795444972e-03  -1.7268798680108780e-02 1.1645272874169428e-02 1.4118544759594406e-04  -1.5369976074940091e-02 1.4294809100615223e-02 3.7573371224211273e-04  -1.6930665391418350e-02 1.4435200391272629e-02 -1.6516458205636443e-04  -1.2224060116633286e-02 1.7192702795742566e-02 6.4645717425066175e-03  -4.0807046059508538e-03 1.9169754161446291e-02 -4.3408227475258522e-03  -2.7962896268872530e-03 2.1989532994103902e-02 -4.9412618409332004e-03  -2.8334444001090172e-03 2.0120645136592938e-02 -3.0179051439608953e-03  2.9257951733309868e-03 2.2678763341295458e-02 7.8849631719599513e-04  -1.1280570112187362e-03 1.9584891462081963e-02 6.5147201504214764e-03  -3.0349524688646256e-03 1.8449789289012669e-02 5.6634473523275216e-03  1.1425472616167050e-02 1.5755206418113121e-02 8.3075608695914443e-03  1.1439874613434877e-02 1.5422149929697232e-02 6.5745046289177340e-03  1.2796220701542040e-02 1.6913992069325017e-02 6.3461762359417074e-03  1.4639822055904379e-02 1.4753319323072460e-02 7.2655111165803622e-03  -1.0148487429992602e-02 2.3191006796832763e-02 7.0463727413436978e-03  -3.6819750739267940e-03 2.4081372493246746e-02 8.5252032331130465e-03  -5.5011293862650672e-03 2.6066525941257478e-02 7.4947534992883206e-03  -1.0007283364603280e-02 1.8616752209337107e-02 -6.4176879681782225e-03  -8.0420595059753300e-03 1.5780874896253457e-02 -6.5290011678137477e-03  -1.2890282526802270e-03 2.0851759437100503e-02 -6.6188443178979636e-03  -1.4909860257521643e-02 2.2050146987013165e-02 -1.1661875406764233e-03  -1.0249471806386324e-02 2.4407816214661364e-02 -2.6703183802766510e-03  1.7601713948729072e-02 2.0558399917433488e-02 1.6261480327014743e-03  1.59