<?xml version="1.0"?>
<VTKFile type="UnstructuredGrid"  version="0.1"  >
<UnstructuredGrid>
<Piece  NumberOfPoints="512" NumberOfCells="2036">
<Points>
<DataArray  type="Float64"  NumberOfComponents="3"  format="ascii">0.5668903241785761 -0.8221794535781284 1.907447677106904  0.3573077921208102 -0.931577148823802 1.869345932802062  0.3803448068999544 -0.9245889467903353 1.63109208210855  0.7515111043082954 -1.072403376408446 1.726857470392507  -0.4110105156711639 -1.202710722563737 3  -0.2728750356463495 -1.40528416043813 2.751367144169643  -0.1974330685997361 -1.517981232226387 3  -0.5154153491449851 -1.402827814406427 3  -0.5050584774146081 -1.217188684097516 1.869628035972452  -0.2297024960636879 -1.215139212755556 1.877242757058314  -0.4629648632736991 -1.14453983123708 2.156031963921787  -0.3174578795440642 -1.351539522133417 2.099901799200242  -0.05725472340525808 -1.276452563101851 2.201603180209699  -0.05821607733009468 -1.694498948191016 2.242036300095007  0.1261865205882303 -1.315154927773589 2.421917368929744  -0.1733507538578632 -1.49632633843649 2.493414307511857  0.2547589484023274 -1.701285345681544 1.485048602246494  0.1530221731440286 -1.984928631422282 1.514643753720291  0.2702247064364303 -1.973385189441298 1.302131298391996  0.3970642112818749 -1.959482453509901 1.498248425634686  -1.252208718574231 -1.255676782608476 2.240162865292683  -1.27880378834883 -1.097780360767302 2.484224604771694  -1.271058698454983 -1.531697722994652 2.368959930138202  -0.9864279935205215 -1.43590426619299 2.473369520863257  0.005411775363112981 -1.715510474141662 3  -0.08952865272329452 -1.58757690734094 2.774410511097231  -0.03741147490816631 -1.799717897785098 2.780949192277687  -0.1912871887741021 -1.720232435760223 3  1.143117929213057 -1.332984790918304 1.291712047176803  1.287925026486669 -1.250286655418541 1.563230302022756  0.9818456603842673 -1.44849919396431 1.467043373094701  1.211759553235815 -1.580363273790293 1.573400789366199  -0.8612948758462922 -1.221512208357321 2.388776408797193  -1.103306607305279 -1.004878108249375 2.228634784643735  -0.9933755656962664 -1.196355148776187 2.600714888111475  1.024076557683159 -1.240771688279978 0.3581982769033679  1.199121664768376 -1.043758421937294 0.2175119642994899  0.8752834790046372 -0.9845817366901065 0.2720073073847573  1.243446925972203 -0.9224347818266605 0.4510139155757393  0.1370067673555018 -0.9865060112137281 0.4943644520525992  -0.05694722622227542 -0.9943911877720703 0.7507721659874088  0.1320447463629548 -1.182832957089002 0.6902427824991655  0.1430188445468729 -0.9859138732940584 0.8313480453215276  -0.822628199668554 -1.52403016447813 2.019744910374486  -1.137120165772262 -1.641618236042073 2.030266844189874  -0.8119819854109458 -1.822842763915013 2.148432273903636  -1.073191843237068 -1.68322318608683 2.402982894159042  -0.6965381550096228 -1.263411683811706 0.2201411073362053  -0.5498994166274705 -1.391214809444014 0  -0.412283203064343 -1.206339064170058 0  -0.472057609283929 -1.122634025922136 0.2215686865375343  0.539749255821079 -1.046194356883078 2.751521077914877  0.8050898180109509 -0.9497681377614944 2.763296839455024  0.5668903241785762 -0.8221794535781284 2.695921887862566  0.6565945984642327 -0.7485610582252132 3  -0.3090547349213359 -1.733782822231273 2.753250382172248  -0.3660489630911821 -1.62983828964596 3  -0.1290768228226704 -1.767499512707659 0.2261580487777737  -0.3970022116813076 -1.959501260883118 0  -0.1702606446686183 -1.983230790170092 0  -0.2837038060335636 -1.972057614005986 0.3215453807926998  0.1465251446514881 -1.73907258865477 2.052362879985445  0.2816975673726751 -1.660518898766998 2.325193354607649  0.1397279329429357 -1.459834466177887 2.095509752031251  -0.2506531156837949 -1.656250029703367 0  -0.5264396218653206 -1.672251217010075 0.2257929171958778  0.6275793050122525 -1.061282229358439 0.6139564212235973  0.6058695462362139 -1.134557262598285 0.283188955010585  0.8697784629840319 -0.9839181505452814 0.5805049722654703  0.4571403144093698 -1.428621652759034 2.494390534496498  0.5047633414098978 -1.701091909258534 2.483976055265135  0.5954271997185592 -1.581432446132397 2.251429001024046  0.3160481489608198 -1.56489709249298 0  0.4068982193666512 -1.382801193772659 0  0.1848413712825857 -1.309244353432439 0  0.2644202715362862 -1.294332619968876 0.3273702600412591  -0.864222685469313 -1.344010265136865 3  -1.173261837785776 -1.321148382165857 2.753760704174639  -1.023041572867971 -1.485771084613054 2.769756251302412  -1.072094206455028 -1.343211096479959 3  0.9777758768151188 -1.348216993986192 0.9918469369685869  1.114295833704897 -1.28147243621458 0.6855145931193174  1.320387986146934 -1.491214222819183 0.8600609971591007  1.029264670858431 -1.70670274889404 0.8593106238042493  -0.3134150892756098 -0.944891854666456 0.8570186476746575  -0.5620455767304046 -0.8261554350557641 0.917008705134106  -0.6418750066813135 -1.208129984863322 0.839815923464834  -0.3904275899126728 -1.2228139766883 1.028784403977877  1.186300453527206 -0.734929539024147 1.419223726198589  0.7428011018494809 -0.6636131256152955 1.368183410332982  1.022899481669183 -0.8720254180038959 1.208965058497697  0.9816364272629136 -0.8206169157505248 1.611242864071161  -0.5165692160891929 -1.374562558584865 1.448384292940016  -0.2006876627817145 -1.255576727933068 1.544096825345338  -0.2182191563329928 -1.324006023279175 1.272207769236289  -0.4579492489555881 -1.149998254665638 1.31048055841493  0.03186603807096211 -1.22963221989316 1.141399856671786  0.1138559628501345 -1.493856819924277 1.103505226451604  0.2923078162116554 -1.286717793236007 0.8862421744670977  0.3072728703049077 -1.209346354525099 1.182782829638393  0.5459377022159313 -0.8366183072844964 1.0453579218402  0.4591164897377005 -0.8830252121908606 1.331510509655913  0.736697608482531 -0.9632137350693124 1.242715976306874  0.9278371823501179 -1.760916870993254 1.884461016268806  0.7040141174319205 -1.8663702174457 1.888179206275236  0.5546597939269164 -1.628244773786683 1.70776452956828  0.9225403939060037 -1.763748063401409 1.6370849341872  0.7806031548831832 -1.478809209481999 1.29770302707122  0.9093934520498621 -1.175619264770395 1.370879865155112  0.7371411818549486 -1.245407650695017 1.199727170311771  -0.6057053128434888 -1.355206891995083 2.10687605578104  -0.8922614140538092 -0.9598247585280195 1.721329349967923  -0.8274914396327392 -1.265169519277624 1.867400399538058  -1.027088725179825 -1.341886914879584 1.625457201280138  -0.6827309685052868 -1.128648610721406 1.506009069118481  -0.2834188814953068 -1.972085676623609 0.6000394301296303  -0.3171266928342252 -1.695646660390988 0.5737328334979085  -0.05702749003043128 -1.994383282476967 0.4760792197932613  0.001479751126067894 -1.346436771942426 2.712937296106372  -0.09398024628993953 -0.9907437536550519 2.710200746303185  0.1370067673555022 -0.9865060112137281 2.561668157674276  -0.1090022595221094 -1.238002071806018 2.503338995054201  0.7042305776901707 -1.866304554944227 0.8852614832278487  0.4665595562254921 -1.938401271095107 0.9110475208049771  0.6221656730775273 -1.637486977936075 0.9987506504405713  0.5810364649610583 -1.903675080480552 0.7403603373058678  -0.3471806443495588 -1.619492974272195 1.061193874939478  -0.2441999497414182 -1.489813934363792 1.459629228249645  -0.4319380754558522 -1.64494032672031 1.396508179060381  -0.8160881253836936 -0.9818400701329597 2.448019308486853  -1.107321762135687 -0.8339207004706223 2.428450381789633  0.1123759044766342 -1.31579680109984 1.394514092508574  -0.01772145217726329 -1.329873414594634 1.743889089178886  -0.02660210747562364 -1.612389279102385 1.489969501922704  -0.8648165414701006 -1.794602105338379 2.614648538236527  -1.073191843237068 -1.683223186086829 2.677994398191178  -0.9797274205773092 -1.356986634496305 2.213800646181586  -1.099466534502359 -1.373540263547909 1.910670219988218  -0.5377781347417314 -0.8409796869639981 1.882835759228553  -0.4401281420773075 -1.158778609558375 1.616127761197094  -0.5446025214562753 -0.8373319762690399 1.659895602401009  -0.42750593623848 -0.8999214050497621 0  -0.3198884544806959 -0.942928180799714 0.2865498643990059  -0.529771480238135 -0.845259332957881 0.3173003373633954  -0.4236071266561529 -0.9020053621884677 2.073571369523039  -0.09220059373596257 -0.9909190341325813 1.959106296746401  -0.09398024628993933 -0.9907437536550519 2.228223040347831  -0.7433832356935295 -1.477644563498893 1.552366829508737  0.3874030646119153 -1.223092269053682 0.6004464045565558  0.3159359661445701 -0.9441271550284744 0.7092648528459149  0.4926101737238671 -1.114076657709663 0.8255237017387367  -0.8361908746458244 -0.5467373724377904 2.130302338675527  -0.6183960401318022 -0.7799098048888704 2.1663619270695  -0.8956011998013778 -0.8071504795590115 2.234858103997369  -0.7329302416911354 -0.6756408035188253 2.438518203312504  -0.1102312877126252 -1.303645564794963 0.9100123692200208  -0.09398024628993953 -0.9907437536550519 1.070209945607212  0.4198286522894198 -1.58265230675512 1.271111778381751  0.5771107580758468 -1.904865930644996 1.303308069989472  0.642290235735911 -0.7603003453326669 1.585534554221589  -0.7402515044326725 -1.107216055192624 2.16642888821684  -0.8936515289701017 -1.056930152793005 2.798917390392618  -0.6356205681608251 -1.011929979963801 2.806883106026603  -0.5661691803201441 -1.193172724899577 2.687105439299263  0.8130454891742492 -0.5780200920072978 0  1.018707798484534 -0.6439604648531093 0.2243333182564357  0.739524184845197 -0.6676060605380746 0.2477314684233518  0.9466399774436585 -0.8576099695738398 0  -0.3468682078969085 -0.934743962076362 2.288463313493335  0.3616757680332487 -0.930252137816687 0.3292993574078236  0.5668903241785761 -0.8221794535781284 2.441120449011604  0.5391723771827532 -1.176483984064486 2.274843200266602  0.795586807817142 -1.152919657014672 2.398574553024427  0.4597997898280238 -1.148132257608279 2.523335142989471  -0.5796097317440221 -1.099062822847452 2.382962715703942  -0.14032
[...]
<PointData  Vectors="f_18"> 
<DataArray  type="Float64"  Name="f_18"  NumberOfComponents="3" format="ascii">1.7265251756704545e-02 -2.5394537513258351e-02 -3.8463735921813115e-03  1.0490659275416208e-02 -2.8375655544003682e-02 -3.2275351823549876e-03  1.1439953638328809e-02 -2.8442509318765949e-02 -1.2442658435641058e-03  1.4646551744506501e-02 -2.1254192832904480e-02 -1.7250820821026458e-03  -7.4688730000805146e-03 -2.1257678453484329e-02 -1.0474604403706296e-02  -4.4469156657649155e-03 -2.1736541854591496e-02 -7.8614787894070951e-03  -2.7341800645987900e-03 -1.9830663082262560e-02 -8.6612486260304548e-03  -7.0539818350951041e-03 -1.8907029770999388e-02 -8.7196606514550606e-03  -1.0099319242483090e-02 -2.3827894216829161e-02 -2.5678425481001545e-03  -5.2811164284702946e-03 -2.6347105759040940e-02 -2.8915724286342321e-03  -1.0331797076925785e-02 -2.4460479480950929e-02 -5.0414549799082777e-03  -5.7859195554138239e-03 -2.4124047744768121e-02 -4.1543365013377740e-03  -1.3883551457560339e-03 -2.5765901828465523e-02 -5.2695066314777288e-03  -9.5884082958408532e-04 -2.1545892112941372e-02 -4.0435631197343206e-03  2.1216379267557980e-03 -2.4708756920006753e-02 -6.5034293364105832e-03  -2.9145155423428498e-03 -2.2419102168221315e-02 -6.0351940397262429e-03  3.0315849324347409e-03 -2.2104833288509786e-02 1.6940024993006189e-04  1.2819274963171297e-03 -2.0562260214311252e-02 -6.0247389178785445e-05  2.4889004948642408e-03 -2.0309229508735576e-02 9.8900347738954111e-04  3.7669262595183819e-03 -2.0020503588311984e-02 5.8934286297462878e-05  -1.5081335691018334e-02 -1.4682680140172828e-02 -3.9509134262388093e-03  -1.6178068965154637e-02 -1.3613713053274960e-02 -5.3757990525092102e-03  -1.2753840935922203e-02 -1.4922602603440730e-02 -3.9802889816218205e-03  -1.1995511801026497e-02 -1.7038466853339228e-02 -5.1680457962968215e-03  -1.2482229659595536e-04 -1.8723525614947320e-02 -7.7192910442205652e-03  -1.3991154130237181e-03 -2.0638492494240990e-02 -7.1662353606837389e-03  -6.5927059217860606e-04 -1.9152815060328184e-02 -6.4289958936182574e-03  -2.2906453692819418e-03 -1.8549029774058177e-02 -7.6791482867826803e-03  1.3833840994179289e-02 -1.6427271192165516e-02 1.1220502736524625e-03  1.5308735037457329e-02 -1.5099129072960916e-02 -3.4098041563581055e-04  1.2195324490340415e-02 -1.8185099280560630e-02 1.5106512720797606e-04  1.2436765871599835e-02 -1.6243661082378805e-02 -4.1078330607025824e-04  -1.3492890740145912e-02 -1.8692134573629036e-02 -5.6104601617720708e-03  -1.7471157545040687e-02 -1.5512311721420161e-02 -4.5745545290987594e-03  -1.4043113575657021e-02 -1.6569061246673161e-02 -6.5330533262818631e-03  1.3199710570653582e-02 -1.6307766572247626e-02 6.4718511691472195e-03  1.5295817969349583e-02 -1.3594498974038347e-02 7.1525665146919201e-03  1.5449412434964012e-02 -1.7625098402174764e-02 8.4747020700847789e-03  1.7244851730749789e-02 -1.3159924345617361e-02 6.2363081577876097e-03  3.8722840181018197e-03 -2.9117591430435647e-02 8.9807777756302689e-03  -1.8768145803484137e-03 -3.0029780748129269e-02 6.8447622827321987e-03  2.7476575158456294e-03 -2.6701863247586406e-02 6.2088295596873519e-03  3.9383957781630929e-03 -3.0190357154497187e-02 5.9283502431461367e-03  -1.0447904623166679e-02 -1.8933584073105365e-02 -2.9303852588478535e-03  -1.1668031301971513e-02 -1.6368803889637781e-02 -2.4528964209068879e-03  -8.4171578921282842e-03 -1.8115765961000563e-02 -2.9530835419838762e-03  -1.0690099314831229e-02 -1.6179877315060948e-02 -4.1258247918974315e-03  -1.0886058117343594e-02 -1.9145229411461986e-02 8.0267862285617782e-03  -7.8450444698178867e-03 -1.8728104971061244e-02 8.7796397163232912e-03  -7.6363097082747218e-03 -2.1099358175751454e-02 1.0514055009883203e-02  -9.8742151798342885e-03 -2.2462149674960755e-02 9.6085952728149522e-03  1.1420684475338366e-02 -2.2433065006384846e-02 -9.7466617374923972e-03  1.5501485711301517e-02 -1.8399252895552023e-02 -9.2648959621882618e-03  1.5898481845351153e-02 -2.3226225652619795e-02 -1.0775359280254491e-02  1.7093611742960323e-02 -1.9903603947607929e-02 -1.3359789473446227e-02  -3.6728937650979026e-03 -1.9248633427064368e-02 -6.3975437430618398e-03  -4.3730933336964574e-03 -1.8463462289893730e-02 -7.9392407828134549e-03  -1.7837155086895976e-03 -1.9369195481402580e-02 6.5256227717194019e-03  -3.8634968992889139e-03 -1.6904909014844562e-02 6.6720867659878051e-03  -1.9086337589496825e-03 -1.7243450343702289e-02 6.7571997722701569e-03  -3.0076601224085704e-03 -1.8283396448723611e-02 5.3258460876215163e-03  1.5763218339393701e-03 -2.1549943412653750e-02 -2.9009331159812256e-03  3.4002724329004635e-03 -2.1278020687414523e-02 -4.5149029057592526e-03  2.1674574233346163e-03 -2.3686612298064950e-02 -3.7632184460331332e-03  -3.3039308976382802e-03 -1.8674130165127253e-02 7.9722779857705067e-03  -6.2487736151089022e-03 -1.8522862026157091e-02 6.6065927746634173e-03  1.2954246639118915e-02 -2.2424695890313789e-02 6.6547183462534049e-03  1.1133859239796798e-02 -2.1297451938373763e-02 8.6363383267217663e-03  1.6247157655378472e-02 -1.8539376524506532e-02 6.4937171773288343e-03  6.6790395758787747e-03 -2.1603266481803263e-02 -6.1027207225382660e-03  5.6889888501011603e-03 -1.9638979127167656e-02 -5.1157488926250067e-03  7.4934352868431791e-03 -2.0160072061003963e-02 -4.1868421497611181e-03  3.4498795974233941e-03 -1.9158771457124042e-02 8.2607674661118683e-03  5.4999890214248691e-03 -1.9898370257617187e-02 9.0738731922551160e-03  2.7748703697403681e-03 -2.1725630736627820e-02 9.9758332864805892e-03  4.5108657984394554e-03 -2.3325773514261239e-02 8.1044131773908949e-03  -1.0765696155322722e-02 -1.6323131342975600e-02 -8.1515412848898652e-03  -1.3181890381506772e-02 -1.4458276745651965e-02 -6.4335706428284775e-03  -1.1085153049513704e-02 -1.5708276383362939e-02 -6.3171603557917906e-03  -1.1901051613114983e-02 -1.4479068149977844e-02 -7.6245197556296619e-03  1.2900511915229736e-02 -1.8038699886271811e-02 2.9460041393701447e-03  1.3710654380499319e-02 -1.6180452544198864e-02 4.5611108738959974e-03  1.2935634774338607e-02 -1.4978089103820003e-02 2.9244469706670800e-03  9.9655764528952390e-03 -1.7135174181324573e-02 2.9423785815607803e-03  -9.9622852179268463e-03 -2.8842090204646120e-02 5.7440266251698293e-03  -1.7112187652498376e-02 -2.5360577838339449e-02 5.3440308409614971e-03  -1.2004670597339465e-02 -2.1743192849415671e-02 4.7227681201547954e-03  -8.1376500908994613e-03 -2.4844059402777480e-02 3.4911450872974637e-03  2.0945459314155195e-02 -1.3037190670532321e-02 5.9598706551839938e-04  2.2972698117687238e-02 -2.0346734948356517e-02 1.2145193362067643e-03  1.9246494905007870e-02 -1.6416984609004238e-02 2.0754705473825462e-03  1.9947503025424505e-02 -1.6978843072804239e-02 -8.2622922339654773e-04  -8.6297335859209581e-03 -2.2502366567585967e-02 3.8842875087721480e-04  -4.5379195367734847e-03 -2.6074194508292538e-02 -3.6543576275720408e-04  -4.3720832111137599e-03 -2.5175543279252987e-02 1.6516406051784325e-03  -1.0169216648647920e-02 -2.4862493579220036e-02 1.4203082419455974e-03  5.5620541042112519e-04 -2.7063064228285891e-02 2.6836820600923128e-03  1.4455296498195318e-03 -2.3774072438490595e-02 2.5705508365449778e-03  5.4508893094331254e-03 -2.4791466376713391e-02 4.5524562393546644e-03  6.3865267988669804e-03 -2.5957109733142643e-02 2.4905960684772428e-03  1.6579667549136028e-02 -2.5692575284342479e-02 4.3247918976052520e-03  1.3730509459118009e-02 -2.7828358991214518e-02 1.6562387955196636e-03  1.6312630862795337e-02 -2.1597872090679909e-02 2.0026239913406695e-03  9.3264988612963614e-03 -1.7880942448316357e-02 -1.9634023324056893e-03  6.9802281058218988e-03 -1.8952970446334223e-02 -1.9262968412715005e-03  6.8610576802298501e-03 -2.1020825444529743e-02 -1.1455035609190592e-03  9.3220320914591120e-03 -1.8128085489794610e-02 -6.3616349552112633e-04  1.0255932341272232e-02 -1.9954021350157423e-02 1.1607547804573233e-03  1.4291715906856805e-02 -1.8900474986390567e-02 8.8907051528417129e-04  1.2205134663308269e-02 -2.1004462677671323e-02 1.9614217383184382e-03  -9.9922799983031031e-03 -2.1568513732035218e-02 -3.7270870543399358e-03  -1.7899276471874909e-02 -1.8651545171412522e-02 -1.5726027294416375e-03  -1.3152736249990311e-02 -1.9559861098309345e-02 -2.3761449059205571e-03  -1.3940229972747593e-02 -1.7540871737257251e-02 -7.0012098771060995e-04  -1.3615715497332039e-02 -2.2005968393266160e-02 -4.3071286536959349e-05  -3.1004175064786904e-03 -1.9096167549776253e-02 4.1630109406497222e-03  -4.2978724289768335e-03 -2.0503253577116572e-02 5.0599228606129816e-03  -9.0596867778538971e-04 -1.9012503706026654e-02 4.6267121792804740e-03  -1.7629126382407323e-04 -2.3369912397806409e-02 -8.2073199728560555e-03  -2.6386367042166643e-03 -2.8332734047521100e-02 -1.0781479483207778e-02  3.9278322316087435e-03 -2.9244287374619114e-02 -9.4730071198719304e-03  -2.5335426129693465e-03 -2.5451956751917127e-02 -7.4993348791850701e-03  6.8087659150691780e-03 -1.8882524171887655e-02 2.9005351682929626e-03  4.3657036895539706e-03 -1.9422658399911273e-02 2.7600271353649532e-03  7.4560385728507789e-03 -2.0247057437119770e-02 2.7728168010045960e-03  5.5078562820106347e-03 -1.8897719511049814e-02 3.5628219630874244e-03  -4.9849308045966743e-03 -2.1931641753317375e-02 2.6003638003732877e-03  -4.1588747506498521e-03 -2.3602174504923117e-02 2.3819773600995000e-04  -6.0066470493382916e-03 -2.1534379827482492e-02 5.9721983917347145e-04  -1.6178512555264653e-02 -1.9336475261494148e-02 -6.9397381133211623e-03  -1.9387372366147963e-02 -1.4193191687820756e-02 -6.1208186440003193e-03  1.9524952836358627e-03 -2.6008416803330631e-02 7.3796704903929689e-04  -5.2520727947276175e-04 -2.5713740694543522e-02 -1.6534248200398072e-03  -5.8302377008072239e-04 -2.2913045133861304e-02 3.7519364548198599e-05  -8.3729159661361397e-03 -1.6806870997489138e-02 -4.9299340170461366e-03  -1.0202317670172215e-02 -1.5538759186724510e-02 -5.2214426469257540e-03  -1.2919697183628873e-02 -1.7609869986525292e-02 -4.0036754435622173e-03  -1.3671540786921909e-02 -1.6776998431905617e-02 -2.1841647000316916e-03  -1.6652379588088809e-02 -2.5940054810039664e-02 -3.4420933811122158e-03  -9.7844755866155816e-03 -2.5219020414047277e-02 -9.0223505336598691e-04  -1.6778266129937779e-02 -2.5790826143360809e-02 -1.5097355961920769e-03  -1.1457225104360074e-02 -2.3228223183077882e-02 1.3776420112941681e-02  -9.1776147940115793e-03 -2.6969638883637074e-02 1.0964337460053481e-02  -1.5446929914555024e-02 -2.3822561821917960e-02 1.0764910228419298e-02  -1.3109882206980063e-02 -2.7803207157114804e-02 -5.1923961490530513e-03  -2.8580958117532208e-03 -3.0812392862204066e-02 -3.9804836399091664e-03  -2.9194193784508066e-03 -3.0124778490544773e-02 -6.4927442367096596e-03  -1.0464146045647637e-02 -2.0207451557902940e-02 -1.7418807146426005e-04  7.4351896573854950e-03 -2.4112724953968843e-02 6.5540203627953552e-03  8.9935438133922491e-03 -2.8506678135663249e-02 7.1991397181646903e-03  1.0469154783626517e-02 -2.4474407651584484e-02 5.3090100770088787e-03  -2.5661445992186723e-02 -1.6366265091598404e-02 -5.7362812393515657e-03  -1.8690914859655090e-02 -2.4324180651509930e-02 -5.9061401177126832e-03  -2.0162878846440184e-02 -1.7660856146333472e-02 -5.6157128360261738e-03  -2.1966978169222998e-02 -1.9787626551255686e-02 -8.6938910511254568e-03  -2.5404190365933446e-03 -2.5757635744159624e-02 4.3339129137692925e-03  -3.1742185136314355e-03 -3.0597481208194853e-02 3.7656899447957842e-03  5.5158336552293208e-03 -2.2123988393898564e-02 1.3628719685286421e-03  5.7216511997346294e-03 -1.9617884170581645e-02 9.8535142999478585e-04  1.9677485280067672e-02 -2.3547417641270704e-02 -9.2206320914868826e-04  -1.4249245382387062e-02 -2.0807550734253551e-02 -4.7817689239373334e-03  -1.4619211114103480e-02 -1.7008571213938818e-02 -8.4830166415155676e-03  -1.3131052846657011e-02 -2.0868966442206371e-02 -9.8926282844611704e-03  -1.0495176601770281e-02 -2.1428486552955855e-02 -8.2214035031744782e-03  2.0810001459436095e-02 -1.5091712174752987e-02 1.3455255548617977e-02  2.0560780966518206e-02 -1.3134092415120147e-02 9.6702023643747744e-03  2.0402799508009387e-02 -1.8991661582348652e-02 1.1301427545077732e-02  1.6249795183000345e-02 -1.5001111116871647e-02 1.0411488817108440e-02  -1.0547339454905958e-02 -2.8203466437312284e-02 -7.2363433850849788e-03  1.0089704263095571e-02 -2.6649137011927677e-02 1.0488241150176327e-02  1.6438354827728180e-02 -2.4079708779469994e-02 -8.5775748616601279e-03  1.0303639334825497e-02 -2.3142227423319259e-02 -5.6278804473887814e-03  1.3362223497624908e-02 -1.9642762669818927e-02 -6.0811372178680052e-03  9.1762335610242884e-03 -2.3707305271540958e-02 -7.6963809343639101e-03  -1.2305253413848433e-02 -2.2850946761681791e-02 -6.7637989349940636e-03  -2.1513859560730098e-03 -2.2447125907241829e-02 -2.4041990634654847e-03  -1.1462272466929747e-03 -2.0612982056702724e-02 -7.4199236655856130e-04  2.2221986881849410e-05 -2.0183819846539885e-02 -2.2496179641717916e-03  -2.0642849486533811e-03 -1.9872437368487490e-02 -2.8888812091488799e-03  2.0337812415341079e-03 -1.8500317890614085e-02 -7.7135820081890016e-03  2.9615027133893727e-03 -1.9115758217150176e-02 -6.5415454399439686e-03  2.8673698595417670e-03 -1.7051234831648106e-02 -6.6949620831837312e-03  8.5171583767370423e-04 -1.7260941170500629e-02 -6.6429570354006604e-03  1.9928474795014766e-03 -2.2711573828059075e-02 -1.6873913550562332e-03  5.4080649020494392e-03 -2.3403495461084060e-02 -5.3431436586791965e-04  4.5604998156018170e-03 -2.6534156367525503e-02 -1.1873852054277113e-03  1.7271935947610638e-02 -1.6378423365483286e-02 -2.3276539588656460e-03  1.3222118342629789e-02 -1.7517065434553836e-02 -2.8713964353536273e-03  1.4166956413464214e-02 -1.7455932912568407e-02 -9.9491826797883445e-04  5.3673594091161216e-03 -1.8540196517205215e-02 4.3316146806417028e-03  3.3775574575220717e-03 -1.8272409019867635e-02 4.9852248777337528e-03  3.6919175804161087e-03 -1.9163911943643686e-02 3.6161422020844769e-03  3.8102851379140236e-03 -2.0199613345717755e-02 5.0005197936993980e-03  -9.7401734729008621e-03 -1.7359067396381506e-02 6.6546068365382714e-03  -7.2194125990192246e-03 -1.9574274464965794e-02 5.6509026303006721e-03  -7.0919973016411279e-03 -1.7062072829325231e-02 5.5064577199707360e-03  -9.8589547214501007e-03 -1.8142424206369568e-02 5.1414075408620528e-03  9.8011528389300787e-03 -2.4334743979427049e-02 -1.0977924150586888e-03  4.1943315444557009e-03 -3.0886261119275359e-02 1.7246087735760941e-03  8.2804173445309975e-03 -2.9402226655290579e-02 4.4308891175540311e-03  -1.3170795104342501e-03 -2.0333638456499135e-02 -5.6262311459679155e-03  -2.3919748674127028e-04 -1.9171952179339483e-02 -4.4590177330935928e-03  1.9641371484015223e-03 -1.8325712043958158e-02 -5.4569880728922091e-03  -2.2993112417156922e-04 -1.8398660707854755e-02 -5.3766559683433041e-03  1.0260969236640046e-02 -2.0386397649549051e-02 6.0491901408785730e-03  -7.2573618422310899e-03 -2.0914169409474537e-02 -7.3576854791511381e-04  -6.2041980416766085e-03 -2.3087547080339835e-02 -1.0947210931144054e-03  -3.6694760324054343e-03 -2.1726624068802328e-02 -8.8537182406648338e-04  -5.8631416721050484e-03 -2.2492588996495918e-02 5.0288608461997921e-03  -5.7285639564942101e-03 -2.0559441068910469e-02 3.6958603127113078e-03  -1.0996901432176369e-03 -2.2105518495571706e-02 3.9748788181264132e-03  -1.1534775631918050e-02 -2.8640567264123330e-02 3.4020647954693668e-03  4.4089981731723297e-03 -1.9208709017399694e-02 -3.5043523592922263e-03  6.6141056546437284e-03 -1.8273577271226304e-02 -3.9743144052685397e-03  1.0227923095793692e-02 -2.3318663989127041e-02 8.9165810763917788e-04  -1.5245518137129058e-02 -2.4074981285311235e-02 -1.0743005818911900e-02  -9.4169036670021314e-03 -2.7208973068580056e-02 -1.0226118024412244e-02  -7.6795086211309781e-03 -2.3678631541723963e-02 -9.7551893655115646e-03  -5.1872144954154169e-03 -2.3514497095635727e-02 9.5070019241834548e-03  -4.8095868053237281e-03 -1.9846386437116195e-02 9.1968477878109616e-03  -7.3226683981365602e-03 -2.2428817071357583e-02 7.6205180917661586e-03  1.4326047495823070e-02 -2.0872684804474181e-02 4.2533067004097008e-03  1.2127100073906980e-02 -1.9143667423447513e-02 4.5562183973251276e-03  -1.5074208557782466e-02 -2.1758179457856647e-02 -3.2893971169190321e-03  -8.1901186306065181e-03 -1.6880090522632930e-02 -7.7550492308950383e-03  -1.0173064259412817e-02 -1.7696079746776078e-02 -6.3721615294533044e-03  -7.6834949938771957e-03 -1.7707460972073253e-02 -6.5714012488481697e-03  -8.6709016447321964e-03 -1.4922742440852762e-02 -6.6310946808475994e-03  -7.6762300509055775e-03 -1.8988077660402454e-02 2.5400875802784108e-04  -8.7642650239838152e-03 -1.9986721413548798e-02 7.6996009198278985e-04  1.0206169683392354e-02 -2.1214160565303477e-02 -3.3160006088754986e-03  1.1965145528214432e-02 -2.3973434040001192e-02 -4.0784961527595143e-03  1.5186654023993456e-02 -1.9402491655766060e-02 -4.6236036669721446e-03  1.7162044297131956e-02 -2.0470478360358764e-02 -3.4510977589705671e-03  5.4680399789962860e-03 -2.1351821623377464e-02 -2.7586684142847382e-03  6.5104230937692419e-03 -2.2909319654062059e-02 -4.3058907301802727e-03  2.9261689498893701e-03 -2.0019936285717143e-02 -2.4076127883089788e-03  6.2529892972871832e-03 -1.8281379798079533e-02 6.3705852868410360e-03  5.9667054247996313e-03 -1.6154906586452314e-02 6.5361745122579726e-03  8.5252484185517514e-03 -1.6954725259782918e-02 6.2867860103183407e-03  7.3702462225923564e-03 -1.6752017342363319e-02 5.5084534152788286e-03  2.0017819596561261e-03 -2.0463253467678039e-02 -1.0256692987475344e-03  -1.0732259736715495e-02 -2.3149164242234774e-02 6.8977903528729687e-03  9.6009898790986488e-03 -2.6810247252215327e-02 -1.0764057462250051e-02  1.2143221870609006e-02 -2.2984138080324058e-02 -1.3262615600012358e-02  -7.3505515331223114e-03 -2.0844448263380742e-02 -2.4436316065476337e-03  1.0561161731831635e-02 -2.0633786872467030e-02 -7.0559072036944755e-04  1.4562535754770348e-02 -2.3263110395160574e-02 1.5688045252571306e-04  -1.6947251403631524e-02 -2.4575847766855868e-02 7.8087092340128027e-03  -9.7595286816447128e-03 -2.8248881324615852e-02 8.5113269330607619e-03  8.7905630582083387e-03 -1.8296100378383005e-02 2.1684630232505489e-03  8.9572809894383106e-03 -1.9600074980707451e-02 4.0289826271776010e-03  -6.5716205900052532e-03 -1.9402590542192281e-02 1.3251350425510331e-03  -8.5035256197203511e-03 -1.9887213282679790e-02 2.0742472836241051e-03  -1.0008960896847562e-02 -1.7899117390868146e-02 7.3202154230071813e-04  -1.0166679005344384e-02 -2.0531556773134695e-02 -5.4563633363371765e-03  1.1847473919877179e-02 -1.4399813735089511e-02 -5.1908590967646032e-03  1.0059717990569036e-02 -1.5794227083766956e-02 -5.0583169620146478e-03  1.1760433478988801e-02 -1.6631679235364755e-02 -6.4484749371169605e-03  1.0003180283245842e-02 -1.3897137076223181e-02 -6.7443310583705438e-03  -6.6228149347470804e-03 -1.7972762419995646e-02 -4.5771340295658654e-03  -5.8353746304110228e-03 -2.0563204198603854e-02 -4.4560775842159986e-03  -8.3059708319629302e-03 -1.8685677162709382e-02 -5.2828963178438524e-03  -3.9243614683181337e-03 -1.9997364507416786e-02 -5.2180029231331882e-03  1.0627062942455899e-02 -1.8245240542222891e-02 -3.5698405582663077e-03  1.0615198655645109e-02 -1.6712586624068861e-02 -2.6744466783489062e-03  1.1722588077433406e-02 -1.5564396059848138e-02 -3.9183133061022326e-03  8.7868431780825079e-03 -1.7651384448918027e-02 -3.4328864033719014e-03  4.6210482086911208e-03 -1.9871268018913500e-02 -1.3684083994319743e-03  6.4525302604523244e-03 -1.9211557036467816e-02 -4.8598320570106409e-04  -4.5559152305916298e-03 -3.0458148695950489e-02 1.0225594999281673e-04  -6.5744830973967850e-03 -1.9788245895976588e-02 -6.4115402101405849e-03  -7.1698869676089030e-03 -2.4137241189216653e-02 -6.4701067371388124e-03  7.4118291413854545e-03 -2.0412496059110181e-02 2.9043359743661910e-04  1.8122627834994492e-02 -2.4032855720003996e-02 -6.2793662682403897e-03  2.1731136555873436e-02 -2.0937198782867719e-02 -4.7982470334609973e-03 