<?xml version="1.0"?>
<VTKFile type="UnstructuredGrid"  version="0.1"  >
<UnstructuredGrid>
<Piece  NumberOfPoints="190" NumberOfCells="679">
<Points>
<DataArray  type="Float64"  NumberOfComponents="3"  format="ascii">-1.146527028962373 1.167114312334814 0  -0.9184143406250429 1.15951227012599 0.181890248271007  -1.117408632183515 1.349324948359656 0  -1.127667895979856 1.429138092744414 0.1957268739948787  -0.843554369120634 1.571972381406213 0.1893355977975628  -1.023406865707073 1.709833810979671 0  -1.105932760739799 1.665722801080373 0.2684407995307424  -0.6404454764412717 1.557452185064736 0.3229483011552194  -0.6049140089552396 1.896431906697228 0.3184572261395962  -0.5174396855537765 1.720603924206695 0.4455678853971146  -0.6789195424108355 1.679413385346867 0.172716471184192  -1.297015254039048 1.200330857140984 0.198215552709849  -1.513321347298536 1.293450377028231 0.318300028577906  -1.577555788316503 1.215180484183664 0  -1.466118612717564 1.06068664004738 0.1854634457573004  -1.417954567522155 0.9826958282046394 0  -1.687765770332819 1.064693265863353 0  -1.776037932920274 0.899547665238146 0  -1.538403791801157 0.8564673244602555 0.1943213337786517  -0.3365162964824625 0.9378841800729312 0.2405432884014713  -0.4415185705098927 1.234655578466227 0.3250771953421422  -0.5209854872342006 1.060897459510266 0.207962911636449  -0.3313057231869522 0.9394647902018173 0.5  -1.264272254491768 1.537267213620411 0.5235172542791873  -1.237771957270619 1.559015445500463 0.7085720153548473  -1.382377160656424 1.440341022038268 0.687926620973708  -1.192571215110794 1.302722308512609 0.4782864723562278  -0.8092614669963184 1.031632698922229 0.6791456875279881  -0.747028838074304 0.9125730243322504 0.8266226570201092  -0.984599909939442 1.149923132667671 0.7848661116286425  -0.9141816130997213 0.7634549129288799 0.8251041360935342  -0.867837335236696 0.8425368172721063 0.5309559614124686  -0.6564424890631831 0.7486858911845402 0.7578281535473971  -0.631840153311841 0.7688765063405124 0.5362539270910898  -0.688391004567446 1.30457807950404 0.2279694399321673  -0.632518690427178 1.508037302070591 0  -0.5246326138228607 1.437575172319297 0.1874291779963437  -1.162812384258729 0.869959537678654 0.1967137241630482  -1.098472765100997 1.059915202872253 0.2606957431243106  -1.34993589569112 0.9730419110075272 0.3324974874943423  -0.786137885070551 0.6108071024727797 0.5  -1.027957718484444 0.807486031122658 0.3458033622348064  -1.052829203020905 0.5589047274949172 0.5085767754743842  -1.190015801986949 0.4859549610262058 0.2855300420029705  -1.156663002991701 0.588550599634463 0  -1.391582474002526 0.487267687798005 0.2096997911392877  -1.351229656953599 0.5151732646136987 0  -0.7757759682718035 1.842195283264311 0.2279005027763657  -0.7757759682718033 1.842195283264311 0.409013949502827  -0.502990862578652 0.859573871324515 0.3047494630173089  -1.061606909442319 0.9785837600988989 0  -1.315004706961013 0.6972167789990056 0.7557377227898123  -1.232115836721338 0.7631644816213363 1  -1.341896336811819 0.9405672826140373 1  -1.519741993526035 0.8886244139057863 1  -0.686969743987339 1.871540571604279 0  -0.7259496343859416 0.6841466981309493 1  -1.026493956220598 0.7984228743741494 1  -0.8426708147520899 0.5346142571826912 1  -1.24261630433174 0.4137133052539228 0.6762314288941822  -0.88740992893716 0.4509132616824052 0.6953011277941856  -0.947388990623786 0.3051831352366393 0.5363564105802381  -0.3992359231948405 1.264547218604192 0.6584240094702515  -0.5717031409302165 1.095411659227544 0.7615148223574963  -0.5307010043682088 1.3826952685512 0.785767467294626  -0.729538575546018 1.293711139943365 0.7838102578313236  -0.7951415571745835 1.035950760589855 0.3163792525461149  -0.7096214621866395 1.292436199645492 0.5012219118924913  -0.9057171194088783 1.167072336234832 0.4757488249981465  -0.5897572390507918 1.041671125967472 0.5035706790610246  -1.314905435161327 0.6745560659922012 0.4904638895724882  -1.082991713996318 0.5611808793048219 0.7692622717403119  -1.059160609976377 0.7755841138468872 0.6725939498558352  -0.8710834293743044 1.505323501426417 0.4555006884842235  -1.105932760739799 1.665722801080372 0.4985114786665089  -0.8055581621776347 1.507858556983968 0.6786829354555336  -0.9261071527929903 1.761841591057063 0.523708165574422  -0.9290527823196455 0.3656295132424565 1  -1.257212323284817 1.543061149426666 0.3183000285779041  -1.323743981377913 1.488460028710997 0  -1.395988323856183 1.429170629081718 0.2278152199502795  -0.9341416419748636 1.757547067117675 0.3184572261395966  -0.9856468025470075 1.360627069214379 0.677554604785177  -1.201967891204917 0.876419588486421 0.481981018650006  -1.109788677070211 1.078120207642546 0.5482802068902228  -1.43290247623816 1.102502474805115 0.8016223533815361  -1.625681761742057 1.156538815892274 0.729852265836384  -1.382702032230889 0.9409546224454185 0.6727156764281601  -1.723626336383972 0.9976028656093632 0.7650330778500383  -1.308120441486432 0.7203201397046752 0.2251752624482485  -1.234622620676914 0.8484318635280916 0  -1.49971092276425 0.6607539289614928 0  -1.358753583540909 0.4331344014522989 0.4586164123344102  -1.557364917173048 0.7833533360165803 0.4519990588587856  -1.501461285193593 0.980762205338028 0.5025361493182261  -0.7120164604963927 1.653427389927467 0.5133392593030189  -0.6072692169943243 1.895717462149367 0.5362964439456972  -0.829538772807962 1.24650646003822 0  -1.155399090771521 0.9863986739672237 0.7842371480028336  -0.6715976806087487 0.9382906322624599 0.2026049840720276  -1.735554095143283 0.9752875985231242 0.3176742093519687  -1.820074272553177 0.8171614684481179 0.2274378431626041  -1.50754886084441 1.300484172123991 0.5233657346304179  -1.503511147564677 1.30540413999066 0.759039402697864  -1.566418818365817 1.228750921332943 1  -0.5831223326863202 0.8088581884632724 0  -0.7259496343859416 0.6841466981309493 0  -0.8777650763659706 0.8392187700021254 0.1791968347231586  -1.08750656824373 1.473373412162729 0.4186198326001243  -1.447624472225162 1.37350225092525 1  -0.836286829552076 0.9546547382372724 1  -1.598442001919816 0.8131212705610243 0.8005177185861571  -1.7677624176777 0.9150300652967593 1  -1.679490255090245 1.080175665921967 1  -1.001523373036278 1.311368911517147 0.3182110729693932  -0.9546612534662056 1.436284063075672 0  -1.081385764646495 1.38355427730711 1  -1.215281538736748 1.23842223823042 0.7322010707000174  -1.090347441409376 1.674053327819833 0.7298514348497547  -0.9253516653358563 1.762245407515972 0.7647596514128244  -0.6561306764426973 1.122404365790671 1  -0.5831223326863202 0.8088581884632724 1  -1.033708622788163 1.501105289131701 0.8095881280656126  -0.8326984114354637 1.541357275927116 1  -1.65956562518322 0.6779485992594181 0.1896533736052345  -0.859137602666504 1.164403067154992 1  -0.3346493386806206 1.523066756827354 0.432978452806852  -0.4252082943158828 1.690757594369593 0.2517423600102111  -1.157675661796024 0.2874316557483794 0.8237284357888865  -1.132192252194075 0.5760415911141321 1  -1.250327345612778 0.359966722685725 1  -0.6564424890631833 0.7486858911845402 0.2421718464526029  -1.015880871007985 0.6194584810981399 0.2107616280594863  -0.88740992893716 0.4509132616824052 0.3046988722058144  -1.341242197725124 1.124251621324452 1  -1.570108367541714 0.5323200146201426 0.3214131146464111  -1.395988323856182 1.429170629081719 0.4087848372055307  -1.460830652517014 1.031080833577986 1  -0.4431978912794227 1.258461435479526 0  -0.8426708147520899 0.5346142571826912 0  -1.003191405728223 0.7802335023438158 0  -1.111399709213698 0.3143340114943649 0.3936982570693697  -0.3525296771925283 1.668146412112005 0  -0.5077763251465404 1.925898300933896 0  -0.8582612650818664 1.798105973567126 0  -1.564690195006766 0.6196325639107423 0.6892222911693506  -1.007924465648459 1.718109326222245 1  -1.044995883534605 1.072574953573793 1  -0.510994707505987 1.404217254440446 0.5163700951909265  -0.9566144206959937 0.2747709680011161 0.7579149180877363  -1.346016855126876 1.122799247643388 0.5201991910084716  -1.739883507367786 0.9671878379506875 0.5226731680922776  -1.811833783889858 0.8325783383860297 0.6875310263852326  -1.198818116171656 1.24025052295321 1  -1.310173544228634 1.499596998661683 1  -0.7896033500135112 0.6065844212219812 0.7595504241117756  -0.5790841934569149 1.560047235753897 0.6688754989314865  -0.4193563900796843 0.9042774282245836 0  -0.502990862578652 0.859573871324515 0.6952505369826911  -1.857951139271881 0.7317680986975148 0  -0.9819498088636408 0.1832666661363625 1  -1.458761442175848 1.359931813775971 0  -0.9290527823196455 0.3656295132424565 0  -0.6409506341987898 1.096351193148543 0  -1.370317109984933 0.6068829405856371 1  -1.636811764939919 1.142976867755874 0.2684766850732475  -0.854850831960664 0.9759153804258832 0  -1.178992651785606 1.607254374851652 0  -0.5702152500099751 1.383891866592444 1  -0.4213746699951029 1.196244977459891 1  -0.2405674396764836 0.9669899475809407 0  -0.3177026153873686 1.177369199564174 0  -1.573062635283103 0.710522813525687 1  -0.8967436892907179 1.368269408810351 1  -0.7036168792142508 1.675069862734098 0.8042164232910654  -0.8427788650232531 1.8063814888097 1  -0.7827528258206699 0.6149318091030841 0.3055073908801145  -0.6560191600603796 1.594701905386204 1  -0.9772470823615382 1.495419026301591 1  -1.165422214636327 1.618391344802338 1  -0.5821061254012698 1.903350602533428 0.7233926634179388  -0.6701703609710137 1.87663660872893 1  -0.7597161751969241 1.849473182952581 0.6880608757141868  -1.636811764939919 1.142976867755873 0.4985204057412241  -1.663935857491406 0.5750728785195803 0  -1.222473603421901 0.3518873350067027 0  -0.9566144206959937 0.2747709680011161 0.2420850819122637  -1.820074272553176 0.817161468448121 0.4079105755413405  -0.4193563900796843 0.9042774282245836 1  -1.46295663988695 0.3280486082887119 0  </DataArray>
</Points>
<Cells>
[...]
<PointData  Vectors="f_18"> 
<DataArray  type="Float64"  Name="f_18"  NumberOfComponents="3" format="ascii">-3.8560142730076630e-02 3.9597329561861738e-02 6.1018287888643177e-03  -3.6433190322755868e-02 4.6459631407021744e-02 4.0264608438884079e-03  -3.3765684170152660e-02 4.1025759300981395e-02 6.2710850918693169e-03  -3.1972350602064194e-02 4.0929387634228140e-02 3.8668016519706316e-03  -2.4803267033174013e-02 4.6344183249805770e-02 3.9664189297225578e-03  -2.5428874540168518e-02 4.2674919150568889e-02 6.1909712314465425e-03  -2.7263754734862072e-02 4.1465533817488416e-02 3.0173503653778983e-03  -2.0627196228161868e-02 5.0254645787641473e-02 2.3076479709003197e-03  -1.5166582659950956e-02 4.7373499010053097e-02 2.4836159702561252e-03  -1.5213092696838891e-02 5.0179673288126232e-02 8.3912783783612866e-04  -1.9536022261805622e-02 4.8333723811420051e-02 4.1354545215636397e-03  -3.8425564734246874e-02 3.6064548979081033e-02 3.8917969359317729e-03  -3.7465460702147214e-02 3.2454190556964989e-02 2.4455151589827238e-03  -3.9077162711799431e-02 3.0523196719897918e-02 6.3655250977081362e-03  -4.1856611633513556e-02 3.0782043701878401e-02 4.0345093856001876e-03  -4.3738942581565667e-02 3.0834567070248849e-02 6.2406505185106237e-03  -4.1661579640137107e-02 2.6806335804270220e-02 6.3387820253694724e-03  -4.4024198012654850e-02 2.2787142508509380e-02 6.4018888783330804e-03  -4.5945768579587494e-02 2.6110288838185378e-02 3.9580289825105648e-03  -2.6504097170935641e-02 7.4359078666364417e-02 3.3176045025714437e-03  -2.1510454931013927e-02 6.0324290972699417e-02 2.3242038280121584e-03  -3.0597706764148396e-02 6.2138717063383288e-02 3.5094408530029408e-03  -2.6286320029370244e-02 7.4103489483930279e-02 2.6314970833830783e-04  -3.1306780870535053e-02 3.8587939245560039e-02 -6.0388508558923813e-05  -3.0644768059498118e-02 3.9067758932011608e-02 -2.2989793040033859e-03  -3.4038955896508453e-02 3.6006394641890697e-02 -1.9707410224066102e-03  -3.5443231725112975e-02 3.9237705855439113e-02 5.9924034424517459e-04  -3.9369084307254776e-02 5.0660027160673624e-02 -1.6846158351794865e-03  -4.3852928497679730e-02 5.3917708712012548e-02 -3.4118703306420502e-03  -3.7595995155458764e-02 4.4342098498882640e-02 -2.9337224234133978e-03  -5.2643410796078781e-02 4.4522441415546121e-02 -3.5610184132534328e-03  -4.8498385400952193e-02 4.7531897878849309e-02 2.9655250139774359e-05  -5.1591117378223493e-02 5.9532310977013704e-02 -2.6082695125492442e-03  -4.9510574634328307e-02 6.1184359324223510e-02 -2.0318640939307248e-04  -2.7599848947840337e-02 5.2331255346091399e-02 3.5174195631917536e-03  -2.1413850897625201e-02 5.1136681003278117e-02 6.0943106140861460e-03  -1.9772205170210350e-02 5.4208931442912132e-02 3.8807389500660570e-03  -4.7648891033387417e-02 3.5968618757108654e-02 3.8438044434314948e-03  -4.1253984022500537e-02 4.0198481735333344e-02 3.0392033899475689e-03  -4.4041201745802880e-02 3.2288596059915443e-02 2.2671525562341800e-03  -6.1785768243052007e-02 4.8364924041717605e-02 4.3390654784179636e-04  -5.0256988937726836e-02 3.9958883232067990e-02 2.0846843574124996e-03  -6.0550973966853501e-02 3.2733822563850330e-02 9.7286847036227593e-05  -5.9839960095579452e-02 2.5086767261663048e-02 2.7250930961900816e-03  -5.7108413943611519e-02 2.9599961823589198e-02 5.9725915062418099e-03  -5.5487996516406526e-02 1.9958475306936733e-02 3.6891350854531594e-03  -5.5711949945423125e-02 2.1807801904426535e-02 6.0052936780110588e-03  -1.9224270236293459e-02 4.5692464915769206e-02 3.5215179091139838e-03  -1.9296013996809441e-02 4.5720816566565514e-02 1.3040075148174110e-03  -3.9683355033657712e-02 6.8234991851747848e-02 2.6256973158268887e-03  -4.3904930997910416e-02 4.0924233655192960e-02 6.2351368426335320e-03  -5.1527612129437524e-02 2.7938726747997165e-02 -2.6291155220662496e-03  -5.0636050029988215e-02 3.1888885791225910e-02 -5.3094182277325193e-03  -4.4894248221197870e-02 3.2026707791548967e-02 -5.5126061827990760e-03  -4.5393258756475388e-02 2.7089372286621016e-02 -5.5983636463040436e-03  -1.7239634821670572e-02 4.6716215795896680e-02 6.3119224892744024e-03  -5.6937749271467046e-02 5.4039709057152961e-02 -5.3568071335825225e-03  -5.0707119045323601e-02 3.9936162818635046e-02 -5.4558697357185368e-03  -6.6037738979090460e-02 4.2462113338678061e-02 -4.9868703722986771e-03  -6.0506603227092379e-02 2.0789621064660094e-02 -1.5930252158534814e-03  -6.9787275718354622e-02 3.6289221733749183e-02 -1.8896016431881064e-03  -7.4482531910817301e-02 2.5060921917108389e-02 -1.2784353153789531e-04  -1.9183712570846348e-02 6.0728467342294916e-02 -1.5578539590226093e-03  -3.0936352933373434e-02 5.9500898862711850e-02 -2.6633581394461411e-03  -2.1036847299444151e-02 5.5110587141201060e-02 -3.1095794777333467e-03  -2.8664631612966326e-02 5.1454911654287644e-02 -3.0066486338255222e-03  -3.9103447283176808e-02 5.1072575994428458e-02 2.3542596116171879e-03  -2.8285753055010465e-02 5.1943748107439958e-02 2.9201313329741134e-04  -3.5989927175130977e-02 4.6875710056444510e-02 5.3406260442367395e-04  -3.3856035015511557e-02 6.0001576948702687e-02 2.2168442569224682e-04  -5.2005558989058100e-02 2.7404769309416186e-02 4.2653415112428535e-04  -5.9791062895202467e-02 3.1584033104750282e-02 -2.6367232683538002e-03  -5.1367531358648813e-02 3.8089803398455996e-02 -1.5401463926416428e-03  -2.6567131552021728e-02 4.6197596537358714e-02 7.9658294279073946e-04  -2.7329242850949630e-02 4.1403200082064426e-02 2.7531606206738563e-04  -2.5336301922659850e-02 4.7574132882504047e-02 -1.8753735414036151e-03  -2.3092698032086016e-02 4.3920456296969904e-02 -2.6891181330139981e-05  -7.2670202230890171e-02 2.9306785283358665e-02 -4.8553746279784487e-03  -3.1122279617527043e-02 3.8564543070308786e-02 2.4364851330007757e-03  -3.2864381146496202e-02 3.7279077867839065e-02 6.3223149478126399e-03  -3.4418758199556337e-02 3.5573362022169243e-02 3.5316826565408347e-03  -2.3236683966576667e-02 4.3851965457480498e-02 2.4511436730071043e-03  -3.1816853799396375e-02 4.4178465290983120e-02 -1.7714449685963158e-03  -4.7214107821534179e-02 3.4919003645426265e-02 4.9532974300261383e-04  -4.0852741200449544e-02 4.0126801288483505e-02 -2.8073756391705377e-04  -4.1012231922422128e-02 3.2073654057296140e-02 -3.2919302188273245e-03  -4.0103451975374300e-02 2.8996996273214431e-02 -2.4857212596475185e-03  -4.4719969004487693e-02 3.0986379623493179e-02 -1.7304378768045233e-03  -4.2550882882746298e-02 2.5222364380759421e-02 -2.8736884991375933e-03  -5.0996015999733330e-02 2.8692895657870140e-02 3.4226297936936416e-03  -4.8108300558738160e-02 3.3431271454419952e-02 6.1691955727828556e-03  -5.0192424579534239e-02 2.2762120792162301e-02 6.1458035579527361e-03  -5.7202178647929931e-02 1.8933003164447956e-02 6.9189406954745728e-04  -4.7203439843207469e-02 2.4257476811257239e-02 8.9207703693175054e-04  -4.3515917242869823e-02 2.8981701594749734e-02 3.4057645425086358e-04  -2.0693214346735718e-02 4.8107406384802591e-02 6.1393703117817143e-05  -1.5214127001588978e-02 4.7275015213908360e-02 -1.9985557249059055e-04  -3.2348773935449299e-02 4.8964163108029930e-02 6.0271081077314962e-03  -4.3763196091664208e-02 3.8030935224301086e-02 -2.9591745376562743e-03  -4.0833625386079431e-02 5.7443568033558774e-02 3.6919736622874483e-03  -4.2901048432888264e-02 2.4615074678437841e-02 2.5949800822458653e-03  -4.4932043318895783e-02 2.0694075578063170e-02 3.6238959417301633e-03  -3.7279035841281644e-02 3.2712631381535337e-02 5.8153009945343787e-05  -3.7183653945011254e-02 3.2830270499092866e-02 -2.7840454710274317e-03  -3.8850820431578753e-02 3.0961943146552654e-02 -5.8674256200824323e-03  -4.5875292458840117e-02 6.3899185315622817e-02 5.7651599535624822e-03  -5.7287537668391536e-02 5.4542679178561981e-02 6.3167265858249657e-03  -4.8580976637904158e-02 4.7049060713865089e-02 3.9410271912058408e-03  -3.0565730891739629e-02 4.1736526626355602e-02 1.2359486642471629e-03  -3.5731516369230151e-02 3.4430828707611313e-02 -5.7610869031508947e-03  -4.3069970393604468e-02 4.9834688038663803e-02 -5.2578549968670604e-03  -4.6318143873684069e-02 2.4111153050987533e-02 -3.2393990319246292e-03  -4.3786955665475746e-02 2.3134742107055555e-02 -5.7977693982745031e-03  -4.1437225880070115e-02 2.7189608492328602e-02 -5.6880580527853110e-03  -3.3253514450321146e-02 4.3857047149668163e-02 2.3235930092281630e-03  -2.9559041814837005e-02 4.4766380599432699e-02 6.2098249576793751e-03  -3.2485680990357930e-02 4.2065236163561899e-02 -5.6673848735620744e-03  -3.7184897677799630e-02 3.8290889738193244e-02 -2.5480831331088530e-03  -2.6924915388484998e-02 4.1692989634417518e-02 -2.4863290095559873e-03  -2.2967908171058267e-02 4.4037328202792728e-02 -2.9885910311387661e-03  -3.2458176497767943e-02 5.6022334618007097e-02 -5.3613459263093114e-03  -4.5777434229444240e-02 6.4182732332365475e-02 -5.2560013726767729e-03  -2.9292602678159640e-02 4.2937847323272424e-02 -3.4095485383791460e-03  -2.5188789513580768e-02 4.6931561679699231e-02 -5.7300058348646642e-03  -4.8132832880434011e-02 2.0192264176754095e-02 4.0149671845620665e-03  -3.5508655940151235e-02 4.8566801959512025e-02 -5.4411390888942828e-03  -1.2384090923174726e-02 5.5702421969751795e-02 9.9025763211536681e-04  -1.3058480841663172e-02 5.1705555374255661e-02 3.1826277489259776e-03  -6.6254364881843122e-02 1.7120317716104200e-02 -3.4556511780860217e-03  -5.8266462120930750e-02 3.0188908976219116e-02 -5.3465132323578966e-03  -6.1594818465366422e-02 1.8257068048700777e-02 -5.5239966918335208e-03  -5.1772416556468616e-02 5.9375614113971006e-02 3.5741064106560357e-03  -5.8423338044560930e-02 3.6069662729358132e-02 3.5761234661760614e-03  -7.0285178458500769e-02 3.5945593085315447e-02 2.6046559803231391e-03  -4.0504275898259112e-02 3.4425887047990059e-02 -5.6702704874488875e-03  -5.1541848969242923e-02 1.8050586479931411e-02 2.4543824760217639e-03  -3.4455917828562499e-02 3.5667337243357626e-02 1.3140928578087392e-03  -4.2614881067264597e-02 3.0601983098800731e-02 -5.6517446927204385e-03  -2.1319741649743849e-02 5.9887708598305410e-02 5.7949397163294877e-03  -6.5802792400170729e-02 4.2444889448902574e-02 6.0801464756739124e-03  -5.1699395169220660e-02 4.0744726659029049e-02 6.0617596787470506e-03  -6.7238380330729250e-02 1.9555439188429332e-02 1.6822022295520493e-03  -1.1356185523281544e-02 5.2901474425475922e-02 6.1063957099508522e-03  -1.2819299062343812e-02 4.8127701215980541e-02 6.2570737946583705e-03  -2.1329851386167661e-02 4.4937907711765909e-02 6.2977292308087048e-03  -5.0186357419879528e-02 2.0423580378091975e-02 -1.8962440431312527e-03  -2.5072757320168865e-02 4.3009077446766450e-02 -5.7135092335388223e-03  -4.0672714826944241e-02 4.2176940741964535e-02 -5.5675472823789032e-03  -2.0151689813270510e-02 5.5197934629031671e-02 8.8583650785017081e-06  -7.5281627966614598e-02 2.2435465836124029e-02 -2.8119223993375163e-03  -4.0518593163143060e-02 3.4274631789792551e-02 6.7813405509805215e-05  -4.3036374599204591e-02 2.4399195091661115e-02 6.5797160485970142e-05  -4.4701916795122233e-02 2.1050417330607609e-02 -1.9090887158028840e-03  -3.7052775559191432e-02 3.8861636782786382e-02 -5.6227656522898012e-03  -3.2525864895464079e-02 3.7603906844563197e-02 -5.7461247482715654e-03  -6.2408414684148102e-02 4.8323806137822264e-02 -2.6205936229224966e-03  -1.9036601397657456e-02 5.1338997475139383e-02 -1.7429560577997172e-03  -3.3493341987980624e-02 7.1533659709120498e-02 6.1514897951497659e-03  -3.9869210009039147e-02 6.8062479915748431e-02 -1.9013457864103351e-03  -4.5789041717985104e-02 1.8586244860379516e-02 6.3753474431355881e-03  -7.6649996955098804e-02 1.5128873650456337e-02 -5.2869179806768352e-03  -3.6092337720720673e-02 3.4060530491516215e-02 6.3599491154834251e-03  -7.2814691520686065e-02 2.9316611156028155e-02 5.8368190674791751e-03  -3.3116136609584589e-02 5.6723748909308723e-02 5.8389073009979054e-03  -5.3150258078774423e-02 2.4107077696821789e-02 -5.5504066034560593e-03  -4.0344752873099292e-02 2.8597940757976836e-02 3.1028265822951413e-03  -4.2546024829367902e-02 4.8786973642306497e-02 5.9524396844251575e-03  -2.9231664121625187e-02 4.0182541811207374e-02 6.3235299476146591e-03  -2.2262256219368157e-02 5.4464068910346955e-02 -5.5673532327969759e-03  -2.1823152331951173e-02 6.2285192819969359e-02 -5.3596856546485614e-03  -1.9076891072993912e-02 7.6744517667275580e-02 5.5235224136796811e-03  -1.7711052379432903e-02 6.5473420001727858e-02 5.8514228035340720e-03  -4.8458112674206404e-02 2.2535558483350756e-02 -5.4885101256641755e-03  -3.0198192137989476e-02 4.6511411887560632e-02 -5.5603279691339904e-03  -2.0156760729716765e-02 4.8062857854807885e-02 -3.3222411702551330e-03  -2.0871469925044243e-02 4.5208623469863436e-02 -5.8372072665220202e-03  -6.1765265839254471e-02 4.8926930438695601e-02 2.7953299496315566e-03  -2.0392832856122842e-02 4.9704933861088083e-02 -5.6875430838096482e-03  -2.8613295473505988e-02 4.4205342282434772e-02 -5.6862935489767783e-03  -2.8856493939719244e-02 4.0544219766700688e-02 -5.8502248352891931e-03  -1.4587822849250403e-02 4.7580247185374076e-02 -2.4663429032240280e-03  -1.6709000886641054e-02 4.6870704752866366e-02 -5.7619867315709351e-03  -1.8772121665102687e-02 4.5996730667572837e-02 -2.0028255734016167e-03  -4.0315001358020769e-02 2.8739611183754565e-02 3.1810669622445609e-04  -4.9686980168606967e-02 1.7795951109868171e-02 6.2984157367733471e-03  -6.2753381046365561e-02 1.8569836061868294e-02 5.9908455324302430e-03  -7.5331378659304143e-02 2.1956380039446301e-02 3.3824778373840896e-03  -4.4871470522017363e-02 2.0712783789354268e-02 1.4451065359438475e-03  -3.3079869304200031e-02 7.1471867523428712e-02 -5.3188075168849229e-03  -5.6820668321483477e-02 1.3362770421894305e-02 6.1967363608216525e-03  </DataArray> 
</PointData> 
</Piece>
</UnstructuredGrid>
</VTKFile>