<?xml version="1.0"?>
<VTKFile type="UnstructuredGrid"  version="0.1"  >
<UnstructuredGrid>
<Piece  NumberOfPoints="512" NumberOfCells="2036">
<Points>
<DataArray  type="Float64"  NumberOfComponents="3"  format="ascii">0.5668903241785761 -0.8221794535781284 1.907447677106904  0.3573077921208102 -0.931577148823802 1.869345932802062  0.3803448068999544 -0.9245889467903353 1.63109208210855  0.7515111043082954 -1.072403376408446 1.726857470392507  -0.4110105156711639 -1.202710722563737 3  -0.2728750356463495 -1.40528416043813 2.751367144169643  -0.1974330685997361 -1.517981232226387 3  -0.5154153491449851 -1.402827814406427 3  -0.5050584774146081 -1.217188684097516 1.869628035972452  -0.2297024960636879 -1.215139212755556 1.877242757058314  -0.4629648632736991 -1.14453983123708 2.156031963921787  -0.3174578795440642 -1.351539522133417 2.099901799200242  -0.05725472340525808 -1.276452563101851 2.201603180209699  -0.05821607733009468 -1.694498948191016 2.242036300095007  0.1261865205882303 -1.315154927773589 2.421917368929744  -0.1733507538578632 -1.49632633843649 2.493414307511857  0.2547589484023274 -1.701285345681544 1.485048602246494  0.1530221731440286 -1.984928631422282 1.514643753720291  0.2702247064364303 -1.973385189441298 1.302131298391996  0.3970642112818749 -1.959482453509901 1.498248425634686  -1.252208718574231 -1.255676782608476 2.240162865292683  -1.27880378834883 -1.097780360767302 2.484224604771694  -1.271058698454983 -1.531697722994652 2.368959930138202  -0.9864279935205215 -1.43590426619299 2.473369520863257  0.005411775363112981 -1.715510474141662 3  -0.08952865272329452 -1.58757690734094 2.774410511097231  -0.03741147490816631 -1.799717897785098 2.780949192277687  -0.1912871887741021 -1.720232435760223 3  1.143117929213057 -1.332984790918304 1.291712047176803  1.287925026486669 -1.250286655418541 1.563230302022756  0.9818456603842673 -1.44849919396431 1.467043373094701  1.211759553235815 -1.580363273790293 1.573400789366199  -0.8612948758462922 -1.221512208357321 2.388776408797193  -1.103306607305279 -1.004878108249375 2.228634784643735  -0.9933755656962664 -1.196355148776187 2.600714888111475  1.024076557683159 -1.240771688279978 0.3581982769033679  1.199121664768376 -1.043758421937294 0.2175119642994899  0.8752834790046372 -0.9845817366901065 0.2720073073847573  1.243446925972203 -0.9224347818266605 0.4510139155757393  0.1370067673555018 -0.9865060112137281 0.4943644520525992  -0.05694722622227542 -0.9943911877720703 0.7507721659874088  0.1320447463629548 -1.182832957089002 0.6902427824991655  0.1430188445468729 -0.9859138732940584 0.8313480453215276  -0.822628199668554 -1.52403016447813 2.019744910374486  -1.137120165772262 -1.641618236042073 2.030266844189874  -0.8119819854109458 -1.822842763915013 2.148432273903636  -1.073191843237068 -1.68322318608683 2.402982894159042  -0.6965381550096228 -1.263411683811706 0.2201411073362053  -0.5498994166274705 -1.391214809444014 0  -0.412283203064343 -1.206339064170058 0  -0.472057609283929 -1.122634025922136 0.2215686865375343  0.539749255821079 -1.046194356883078 2.751521077914877  0.8050898180109509 -0.9497681377614944 2.763296839455024  0.5668903241785762 -0.8221794535781284 2.695921887862566  0.6565945984642327 -0.7485610582252132 3  -0.3090547349213359 -1.733782822231273 2.753250382172248  -0.3660489630911821 -1.62983828964596 3  -0.1290768228226704 -1.767499512707659 0.2261580487777737  -0.3970022116813076 -1.959501260883118 0  -0.1702606446686183 -1.983230790170092 0  -0.2837038060335636 -1.972057614005986 0.3215453807926998  0.1465251446514881 -1.73907258865477 2.052362879985445  0.2816975673726751 -1.660518898766998 2.325193354607649  0.1397279329429357 -1.459834466177887 2.095509752031251  -0.2506531156837949 -1.656250029703367 0  -0.5264396218653206 -1.672251217010075 0.2257929171958778  0.6275793050122525 -1.061282229358439 0.6139564212235973  0.6058695462362139 -1.134557262598285 0.283188955010585  0.8697784629840319 -0.9839181505452814 0.5805049722654703  0.4571403144093698 -1.428621652759034 2.494390534496498  0.5047633414098978 -1.701091909258534 2.483976055265135  0.5954271997185592 -1.581432446132397 2.251429001024046  0.3160481489608198 -1.56489709249298 0  0.4068982193666512 -1.382801193772659 0  0.1848413712825857 -1.309244353432439 0  0.2644202715362862 -1.294332619968876 0.3273702600412591  -0.864222685469313 -1.344010265136865 3  -1.173261837785776 -1.321148382165857 2.753760704174639  -1.023041572867971 -1.485771084613054 2.769756251302412  -1.072094206455028 -1.343211096479959 3  0.9777758768151188 -1.348216993986192 0.9918469369685869  1.114295833704897 -1.28147243621458 0.6855145931193174  1.320387986146934 -1.491214222819183 0.8600609971591007  1.029264670858431 -1.70670274889404 0.8593106238042493  -0.3134150892756098 -0.944891854666456 0.8570186476746575  -0.5620455767304046 -0.8261554350557641 0.917008705134106  -0.6418750066813135 -1.208129984863322 0.839815923464834  -0.3904275899126728 -1.2228139766883 1.028784403977877  1.186300453527206 -0.734929539024147 1.419223726198589  0.7428011018494809 -0.6636131256152955 1.368183410332982  1.022899481669183 -0.8720254180038959 1.208965058497697  0.9816364272629136 -0.8206169157505248 1.611242864071161  -0.5165692160891929 -1.374562558584865 1.448384292940016  -0.2006876627817145 -1.255576727933068 1.544096825345338  -0.2182191563329928 -1.324006023279175 1.272207769236289  -0.4579492489555881 -1.149998254665638 1.31048055841493  0.03186603807096211 -1.22963221989316 1.141399856671786  0.1138559628501345 -1.493856819924277 1.103505226451604  0.2923078162116554 -1.286717793236007 0.8862421744670977  0.3072728703049077 -1.209346354525099 1.182782829638393  0.5459377022159313 -0.8366183072844964 1.0453579218402  0.4591164897377005 -0.8830252121908606 1.331510509655913  0.736697608482531 -0.9632137350693124 1.242715976306874  0.9278371823501179 -1.760916870993254 1.884461016268806  0.7040141174319205 -1.8663702174457 1.888179206275236  0.5546597939269164 -1.628244773786683 1.70776452956828  0.9225403939060037 -1.763748063401409 1.6370849341872  0.7806031548831832 -1.478809209481999 1.29770302707122  0.9093934520498621 -1.175619264770395 1.370879865155112  0.7371411818549486 -1.245407650695017 1.199727170311771  -0.6057053128434888 -1.355206891995083 2.10687605578104  -0.8922614140538092 -0.9598247585280195 1.721329349967923  -0.8274914396327392 -1.265169519277624 1.867400399538058  -1.027088725179825 -1.341886914879584 1.625457201280138  -0.6827309685052868 -1.128648610721406 1.506009069118481  -0.2834188814953068 -1.972085676623609 0.6000394301296303  -0.3171266928342252 -1.695646660390988 0.5737328334979085  -0.05702749003043128 -1.994383282476967 0.4760792197932613  0.001479751126067894 -1.346436771942426 2.712937296106372  -0.09398024628993953 -0.9907437536550519 2.710200746303185  0.1370067673555022 -0.9865060112137281 2.561668157674276  -0.1090022595221094 -1.238002071806018 2.503338995054201  0.7042305776901707 -1.866304554944227 0.8852614832278487  0.4665595562254921 -1.938401271095107 0.9110475208049771  0.6221656730775273 -1.637486977936075 0.9987506504405713  0.5810364649610583 -1.903675080480552 0.7403603373058678  -0.3471806443495588 -1.619492974272195 1.061193874939478  -0.2441999497414182 -1.489813934363792 1.459629228249645  -0.4319380754558522 -1.64494032672031 1.396508179060381  -0.8160881253836936 -0.9818400701329597 2.448019308486853  -1.107321762135687 -0.8339207004706223 2.428450381789633  0.1123759044766342 -1.31579680109984 1.394514092508574  -0.01772145217726329 -1.329873414594634 1.743889089178886  -0.02660210747562364 -1.612389279102385 1.489969501922704  -0.8648165414701006 -1.794602105338379 2.614648538236527  -1.073191843237068 -1.683223186086829 2.677994398191178  -0.9797274205773092 -1.356986634496305 2.213800646181586  -1.099466534502359 -1.373540263547909 1.910670219988218  -0.5377781347417314 -0.8409796869639981 1.882835759228553  -0.4401281420773075 -1.158778609558375 1.616127761197094  -0.5446025214562753 -0.8373319762690399 1.659895602401009  -0.42750593623848 -0.8999214050497621 0  -0.3198884544806959 -0.942928180799714 0.2865498643990059  -0.529771480238135 -0.845259332957881 0.3173003373633954  -0.4236071266561529 -0.9020053621884677 2.073571369523039  -0.09220059373596257 -0.9909190341325813 1.959106296746401  -0.09398024628993933 -0.9907437536550519 2.228223040347831  -0.7433832356935295 -1.477644563498893 1.552366829508737  0.3874030646119153 -1.223092269053682 0.6004464045565558  0.3159359661445701 -0.9441271550284744 0.7092648528459149  0.4926101737238671 -1.114076657709663 0.8255237017387367  -0.8361908746458244 -0.5467373724377904 2.130302338675527  -0.6183960401318022 -0.7799098048888704 2.1663619270695  -0.8956011998013778 -0.8071504795590115 2.234858103997369  -0.7329302416911354 -0.6756408035188253 2.438518203312504  -0.1102312877126252 -1.303645564794963 0.9100123692200208  -0.09398024628993953 -0.9907437536550519 1.070209945607212  0.4198286522894198 -1.58265230675512 1.271111778381751  0.5771107580758468 -1.904865930644996 1.303308069989472  0.642290235735911 -0.7603003453326669 1.585534554221589  -0.7402515044326725 -1.107216055192624 2.16642888821684  -0.8936515289701017 -1.056930152793005 2.798917390392618  -0.6356205681608251 -1.011929979963801 2.806883106026603  -0.5661691803201441 -1.193172724899577 2.687105439299263  0.8130454891742492 -0.5780200920072978 0  1.018707798484534 -0.6439604648531093 0.2243333182564357  0.739524184845197 -0.6676060605380746 0.2477314684233518  0.9466399774436585 -0.8576099695738398 0  -0.3468682078969085 -0.934743962076362 2.288463313493335  0.3616757680332487 -0.930252137816687 0.3292993574078236  0.5668903241785761 -0.8221794535781284 2.441120449011604  0.5391723771827532 -1.176483984064486 2.274843200266602  0.795586807817142 -1.152919657014672 2.398574553024427  0.4597997898280238 -1.148132257608279 2.523335142989471  -0.5796097317440221 -1.099062822847452 2.382962715703942  -0.14032
[...]
<PointData  Vectors="f_18"> 
<DataArray  type="Float64"  Name="f_18"  NumberOfComponents="3" format="ascii">3.4866036835672833e-02 -5.1315028528287940e-02 -7.9239944098449255e-03  2.1229357887476371e-02 -5.7378129329276308e-02 -6.7134168983876401e-03  2.3126613051404322e-02 -5.7517026632782818e-02 -2.5832431667186274e-03  2.9786124314406810e-02 -4.3197630593798102e-02 -3.5299460279521085e-03  -1.4982552708817888e-02 -4.2626477062668949e-02 -2.1391973342161193e-02  -8.9910387646941498e-03 -4.3870525422796972e-02 -1.5972045690965095e-02  -5.4984385590865371e-03 -3.9852141917169556e-02 -1.7530858889100706e-02  -1.4189599388259342e-02 -3.7995236018772215e-02 -1.7668991933630501e-02  -2.0523630111695747e-02 -4.8419402554925488e-02 -5.2609999298613864e-03  -1.0716746633885771e-02 -5.3483289947908741e-02 -5.9196209454159751e-03  -2.0954555329699684e-02 -4.9591208932663791e-02 -1.0321029119877201e-02  -1.1772670385901034e-02 -4.9010050168006282e-02 -8.4497882511257588e-03  -2.8352928322644098e-03 -5.2245039589732360e-02 -1.0757692826398085e-02  -1.9586682712576602e-03 -4.3809330785397969e-02 -8.1315074988802440e-03  4.2939027622596205e-03 -5.0016819914439084e-02 -1.3270938540148219e-02  -5.9043518072541042e-03 -4.5429822346154856e-02 -1.2240278488599207e-02  6.1794754042202200e-03 -4.5060024524020539e-02 3.4102567179796313e-04  2.6267908496893492e-03 -4.1915694481992484e-02 -1.1844598040958482e-04  5.0793267323690095e-03 -4.1389311335651373e-02 1.9585253502465761e-03  7.6873222862144713e-03 -4.0812990079736988e-02 1.2005684139598936e-04  -3.0675913175911531e-02 -2.9867894033096400e-02 -7.9153507300556581e-03  -3.2824913625949484e-02 -2.7615049887720851e-02 -1.0794765791731060e-02  -2.5911129211034264e-02 -3.0307800793109498e-02 -7.8813349574679177e-03  -2.4339534262429234e-02 -3.4583591475731965e-02 -1.0367148046985498e-02  -2.6270234503504000e-04 -3.7660340321811224e-02 -1.5500952754265451e-02  -2.8374231187951403e-03 -4.1676805018503613e-02 -1.4472326675672657e-02  -1.3393079609581744e-03 -3.8690407309333062e-02 -1.2870541768732389e-02  -4.6182648820558610e-03 -3.7317978612890927e-02 -1.5417713818059724e-02  2.8207438686886903e-02 -3.3485589015242484e-02 2.2437804342102683e-03  3.1218416060895593e-02 -3.0771114649669633e-02 -6.8509912720627144e-04  2.4870806019360286e-02 -3.7073969832627861e-02 3.0365710853152305e-04  2.5352646149727071e-02 -3.3103414083774318e-02 -8.1575192886275990e-04  -2.7390297999781647e-02 -3.7940603153566614e-02 -1.1365001984092658e-02  -3.5517069204556995e-02 -3.1538507177726466e-02 -9.2707155049295970e-03  -2.8442445555667547e-02 -3.3553097492229483e-02 -1.3196521293028566e-02  2.6713204946488725e-02 -3.2982272796259600e-02 1.3040811606298115e-02  3.0876911390864424e-02 -2.7422423645749611e-02 1.4433580910275816e-02  3.1154706472512311e-02 -3.5532087059723987e-02 1.7283998591070798e-02  3.4951358187660334e-02 -2.6634387873420397e-02 1.2609766982523663e-02  7.8006332389909941e-03 -5.8576065743715065e-02 1.8540029240537936e-02  -3.7789135526123240e-03 -6.0568121741801838e-02 1.4134478312111327e-02  5.5537401992003426e-03 -5.4007056737838961e-02 1.2738194311197156e-02  7.9484686622426463e-03 -6.0889485860157709e-02 1.2266142344278173e-02  -2.1289871600641972e-02 -3.8572498587601076e-02 -5.8787257294487779e-03  -2.3759906749913268e-02 -3.3346210404128433e-02 -4.8602435471094430e-03  -1.7129254669289759e-02 -3.6870799296922323e-02 -5.8502864869917556e-03  -2.1710416454295892e-02 -3.2865256304494515e-02 -8.1654812047118122e-03  -2.1966040691525513e-02 -3.8621946642642194e-02 1.6292539599007637e-02  -1.5758012890790048e-02 -3.7618445618002753e-02 1.7792686903663830e-02  -1.5320607809587144e-02 -4.2307571741330464e-02 2.1461583663424214e-02  -1.9881604477852373e-02 -4.5208522744476530e-02 1.9653455904523352e-02  2.2971214803153492e-02 -4.5148633800559466e-02 -1.9972862895741836e-02  3.1212459680061463e-02 -3.7057627525472599e-02 -1.8939530042545907e-02  3.1911102878708686e-02 -4.6641300992242812e-02 -2.2216312183051395e-02  3.4133244976445550e-02 -3.9735067883081329e-02 -2.7505729039643340e-02  -7.4258096093058820e-03 -3.8905398481752097e-02 -1.2825629249892669e-02  -8.8037783959622716e-03 -3.7127878162118384e-02 -1.5980719887692247e-02  -3.5948376822072530e-03 -3.9123534147554373e-02 1.3076348425075886e-02  -7.7687496172338952e-03 -3.4028663518605957e-02 1.3235185861024044e-02  -3.8371594398265091e-03 -3.4705768381847996e-02 1.3404972339973226e-02  -6.0753037868063933e-03 -3.6994531128351195e-02 1.0547264451599063e-02  3.2122991570401127e-03 -4.3874973931694775e-02 -5.8206648020511518e-03  6.9004297897756013e-03 -4.3216105176254925e-02 -9.0827004593383061e-03  4.4028904754442894e-03 -4.8160310493951662e-02 -7.6511145919468809e-03  -6.6387901808177283e-03 -3.7559641642347180e-02 1.6039682576811761e-02  -1.2612440134494347e-02 -3.7412418388014762e-02 1.3235727218829268e-02  2.6205301050641519e-02 -4.5372439752973004e-02 1.3623195407183800e-02  2.2443502437304443e-02 -4.2925727279532956e-02 1.7627886771533225e-02  3.2899932093609661e-02 -3.7532752883834279e-02 1.3251719878811441e-02  1.3521612778990949e-02 -4.3766856214652858e-02 -1.2372847215079606e-02  1.1533428839597595e-02 -3.9828956441352363e-02 -1.0257899462476985e-02  1.5233149513200948e-02 -4.0989309763252671e-02 -8.4248601969512168e-03  6.9425662432262914e-03 -3.8508513092343488e-02 1.6655278748098409e-02  1.1048492265220040e-02 -3.9956213119963176e-02 1.8427733815029830e-02  5.5649438337609814e-03 -4.3576207528361749e-02 2.0345522649932519e-02  9.1108368685430922e-03 -4.7080227243201586e-02 1.6527097224200839e-02  -2.1665305022801683e-02 -3.2820729135396576e-02 -1.6443446810636048e-02  -2.6644204353010754e-02 -2.9231346872001848e-02 -1.2883698038996184e-02  -2.2410559460268497e-02 -3.1754329825424497e-02 -1.2641696818254179e-02  -2.3960838367755435e-02 -2.9130425495650352e-02 -1.5311849456786991e-02  2.6261623731697582e-02 -3.6704961743966855e-02 5.9338380257258454e-03  2.7865083834191489e-02 -3.2869871535845967e-02 9.1758023679592900e-03  2.6323414681885229e-02 -3.0473594700799179e-02 5.7834072408278186e-03  2.0279350562334895e-02 -3.4850068177260059e-02 5.8277737203492634e-03  -2.0059848242509188e-02 -5.8188721997607371e-02 1.1896915794499972e-02  -3.4590831274138686e-02 -5.1165302292438125e-02 1.1057247254160305e-02  -2.4384042909150663e-02 -4.4152312339813815e-02 9.6063677490983400e-03  -1.6532164539082638e-02 -5.0448551075875626e-02 7.1360878346642806e-03  4.2645648962977248e-02 -2.6537753859937816e-02 1.2088825989042035e-03  4.6447606225315692e-02 -4.1134871136430780e-02 2.5073272444976055e-03  3.9140958279946909e-02 -3.3371358922466933e-02 4.2254239435910055e-03  4.0549550692084387e-02 -3.4501456243486994e-02 -1.6772744154595846e-03  -1.7572481447881431e-02 -4.5838088020162142e-02 8.0406252859012645e-04  -9.2045367190911123e-03 -5.2996803125139422e-02 -7.4317707417950241e-04  -8.8902124639300920e-03 -5.1205334242172731e-02 3.3709735765491246e-03  -2.0647061486044893e-02 -5.0515683456408673e-02 2.9159625779953281e-03  1.1208423712092519e-03 -5.4932657761518747e-02 5.5044106992092386e-03  2.9474109421990980e-03 -4.8394126036108091e-02 5.2146842082778644e-03  1.1071920126117251e-02 -5.0310401617829265e-02 9.2807422628844571e-03  1.2958080133659542e-02 -5.2701895892611754e-02 5.0882557963260388e-03  3.3459212403341800e-02 -5.1903487828797341e-02 8.9342618637537775e-03  2.7761775454681260e-02 -5.6241452746272409e-02 3.4381008824766945e-03  3.3122368821899659e-02 -4.3824955842149203e-02 4.1049952767390919e-03  1.8990561051860776e-02 -3.6436750160200947e-02 -3.8844357875576592e-03  1.4216439301525984e-02 -3.8608827131007536e-02 -3.8119392721195676e-03  1.3991928032695935e-02 -4.2836347267569783e-02 -2.2983462773231212e-03  1.9002937876809199e-02 -3.6946496797443974e-02 -1.2518737033146658e-03  2.0907965022670456e-02 -4.0658743980008842e-02 2.3379004770738327e-03  2.9110249160156483e-02 -3.8482874914790272e-02 1.8050175301635464e-03  2.4844597821170485e-02 -4.2731265867164976e-02 3.9870285420312186e-03  -2.0325239815425857e-02 -4.3844035722393634e-02 -7.5764962146790127e-03  -3.6431816534218543e-02 -3.7931459811425074e-02 -3.2092251444710085e-03  -2.6805423929425014e-02 -3.9844308824576680e-02 -4.8115352041480782e-03  -2.8426655149790772e-02 -3.5777642230629458e-02 -1.4116264246289555e-03  -2.7706641864537897e-02 -4.4748353139340884e-02 -8.9276552075020780e-05  -6.2814800419649991e-03 -3.8777357392934850e-02 8.2463534645560461e-03  -8.7042966595322242e-03 -4.1623059553101659e-02 1.0162292536591691e-02  -1.8291022218282829e-03 -3.8537142791791351e-02 9.1676584618056618e-03  -3.6441516957539511e-04 -4.7150704885044095e-02 -1.6718583917020330e-02  -5.3317399902967858e-03 -5.6868917184265774e-02 -2.2247352009048253e-02  7.8794036645739550e-03 -5.8748791022423849e-02 -1.9554385237728393e-02  -5.1234490704781949e-03 -5.1436022555970733e-02 -1.5347867501475361e-02  1.3865991178831596e-02 -3.8420555453256171e-02 5.7416582095743008e-03  8.8954546987160873e-03 -3.9533955769525765e-02 5.4659844021589625e-03  1.5190407741257048e-02 -4.1233172579868256e-02 5.5622872032388719e-03  1.1213061180540222e-02 -3.8410556110477327e-02 7.0536964909098214e-03  -1.0150765696955269e-02 -4.4658826973196002e-02 5.2335432866240936e-03  -8.4710137770957327e-03 -4.8083363619634077e-02 4.9016894869958983e-04  -1.2237696698185221e-02 -4.3896913622755093e-02 1.2057986751819961e-03  -3.2758787776363998e-02 -3.9127243247016157e-02 -1.4167569901927897e-02  -3.9299987981132087e-02 -2.8781971398090876e-02 -1.2465782513479918e-02  3.9581960394410344e-03 -5.2872550644365517e-02 1.5190824195369663e-03  -1.0684764737160209e-03 -5.2271241134267253e-02 -3.3833834267720706e-03  -1.1834426567798922e-03 -4.6708916500996039e-02 8.6371119868244335e-05  -1.6966611515889359e-02 -3.4052814240152190e-02 -9.7573778732532417e-03  -2.0651766077533471e-02 -3.1454617758986912e-02 -1.0342774917391658e-02  -2.6297251948422432e-02 -3.5846062604145107e-02 -8.0510493071645935e-03  -2.7865659966513499e-02 -3.4205498418759195e-02 -4.3791031403648773e-03  -3.3677129642986435e-02 -5.2421711954974914e-02 -7.1393212332738192e-03  -1.9870594829325305e-02 -5.1230031337354452e-02 -1.8596678027672565e-03  -3.3949785095269670e-02 -5.2179136463187455e-02 -3.1231389695137836e-03  -2.2904654612116444e-02 -4.6450189110509896e-02 2.8329076371839797e-02  -1.8426059428215680e-02 -5.4119900563513672e-02 2.2603587911962271e-02  -3.1025846762732821e-02 -4.7850129541772451e-02 2.2213212268041991e-02  -2.6493528433980122e-02 -5.6119343805877089e-02 -1.0743407961490174e-02  -5.7917372013668294e-03 -6.2214285197955799e-02 -8.2298466697913603e-03  -5.9163650444958634e-03 -6.0753216869755967e-02 -1.3410707524078221e-02  -2.1335950677699604e-02 -4.1190914697741166e-02 -3.5622518745377196e-04  1.5049648000390187e-02 -4.8790381443539664e-02 1.3394951936842607e-02  1.8156117467145627e-02 -5.7447948640834780e-02 1.4880950643764984e-02  2.1215325043197866e-02 -4.9580688324165074e-02 1.0872936433875643e-02  -5.1833444542211796e-02 -3.3047707163508716e-02 -1.1859351265680039e-02  -3.7749811335972647e-02 -4.9025385927172128e-02 -1.2228822086322278e-02  -4.0854362022606373e-02 -3.5795307004557637e-02 -1.1521327159155338e-02  -4.4235022849570420e-02 -3.9868200520519897e-02 -1.7948525297036375e-02  -5.1486183123942101e-03 -5.2267161401864187e-02 8.8391857865416021e-03  -6.4353495264019766e-03 -6.1798645620913410e-02 7.7840476294748990e-03  1.1239776372891573e-02 -4.5072502007818649e-02 2.7468806983722465e-03  1.1665549735278497e-02 -3.9980143684709070e-02 1.9507702102732566e-03  3.9752851321670522e-02 -4.7614686132063135e-02 -1.8912798313859625e-03  -2.8933197043849380e-02 -4.2251996246418289e-02 -9.7415688314220171e-03  -2.9482986362454083e-02 -3.4299136862444776e-02 -1.7252931670991525e-02  -2.6438473325040200e-02 -4.1980136384772805e-02 -2.0263179781012212e-02  -2.1199503869486856e-02 -4.3242381423735314e-02 -1.6752740940124286e-02  4.1556036275044686e-02 -3.0128933397361991e-02 2.7729794927407160e-02  4.1379871636963550e-02 -2.6408930799383730e-02 1.9794385450174711e-02  4.0934439590418682e-02 -3.8090135776169202e-02 2.3322275394770737e-02  3.2566226190580236e-02 -3.0052206546535485e-02 2.1259809630144625e-02  -2.1298316395736844e-02 -5.6850221817211458e-02 -1.4941141462953713e-02  2.0275660234847337e-02 -5.3506653411763347e-02 2.1629189155924860e-02  3.3110427089667827e-02 -4.8499249353170737e-02 -1.7703647290191162e-02  2.0891275384771004e-02 -4.6899377031393248e-02 -1.1494489759050283e-02  2.7084944424900496e-02 -3.9818901412194269e-02 -1.2356071830544817e-02  1.8535175875519925e-02 -4.7897131838896760e-02 -1.5750691147709741e-02  -2.4916624524697652e-02 -4.6244591574945586e-02 -1.3829851088942934e-02  -4.3797695773620370e-03 -4.5718144631422188e-02 -4.8271724412941074e-03  -2.3366320633069035e-03 -4.2008720784094691e-02 -1.4657230281891259e-03  5.0670488616963697e-05 -4.1095911392466475e-02 -4.4534320616073158e-03  -4.2010112629596577e-03 -4.0443823877837931e-02 -5.7242317740231830e-03  4.0838146311349471e-03 -3.7209963872199180e-02 -1.5474620361269226e-02  5.9756547312700145e-03 -3.8619951862925557e-02 -1.3093262592778336e-02  5.7654475883159159e-03 -3.4319162718977829e-02 -1.3274173212019470e-02  1.7052404522628880e-03 -3.4740777159292996e-02 -1.3171920985713155e-02  4.0733199660559355e-03 -4.6261275830580692e-02 -3.3925193801387977e-03  1.1004379113709545e-02 -4.7666936088540710e-02 -1.0930239604731459e-03  9.2535666997473776e-03 -5.3872193318791034e-02 -2.4435888463252287e-03  3.5155683427729394e-02 -3.3337630426406584e-02 -4.7293254071040817e-03  2.6929750927747124e-02 -3.5668717470285279e-02 -5.7866830274649729e-03  2.8878159598562256e-02 -3.5574416546745917e-02 -2.0055688835184833e-03  1.0903213669760759e-02 -3.7614903097171443e-02 8.5708236124810242e-03  6.8512643488149241e-03 -3.6999491816233132e-02 9.8733558961982253e-03  7.5155597812973807e-03 -3.8943449845028330e-02 7.1590034655596392e-03  7.7346307381632165e-03 -4.0988874877490832e-02 1.0023182409840996e-02  -1.9673458236955293e-02 -3.5073292246586604e-02 1.3359374978168010e-02  -1.4636527701497275e-02 -3.9692477282355983e-02 1.1359455749944913e-02  -1.4328857497581934e-02 -3.4504603133017793e-02 1.0899937569369682e-02  -2.0007263569504538e-02 -3.6827109459577990e-02 1.0299875106358811e-02  1.9925164734157345e-02 -4.9466801150280938e-02 -2.2609078835985337e-03  8.4119807371999117e-03 -6.2415343121583637e-02 3.5418400142365365e-03  1.6751933387370257e-02 -5.9354383999506891e-02 9.1907550577020707e-03  -2.6706108918270709e-03 -4.1202291817595597e-02 -1.1289766684164166e-02  -4.8738847081962548e-04 -3.8896688022664688e-02 -8.8265557336498907e-03  3.9696770737142973e-03 -3.7067886947683350e-02 -1.0803826730853420e-02  -4.6839894708069194e-04 -3.7215278193107021e-02 -1.0646013886275443e-02  2.0805208167016850e-02 -4.1317403670601452e-02 1.2252637327668967e-02  -1.4796004790789989e-02 -4.2634814172871641e-02 -1.4770939299064453e-03  -1.2635537344819110e-02 -4.7039952188029165e-02 -2.1974827062227796e-03  -7.4768429415067493e-03 -4.4294561192299457e-02 -1.7785774583193473e-03  -1.1914751934742590e-02 -4.5657624215024561e-02 1.0180740397610180e-02  -1.1654398161781735e-02 -4.1816918879094486e-02 7.4090265632735077e-03  -2.2308109275385791e-03 -4.4936105237038240e-02 8.0155350153854107e-03  -2.3338763403333625e-02 -5.7864811206534930e-02 7.0227259479396006e-03  8.9542981432667885e-03 -3.9032552502489916e-02 -6.9391625231008417e-03  1.3429992286309233e-02 -3.7127265538451894e-02 -7.8695948039426353e-03  2.0806436659962214e-02 -4.7435598855847860e-02 1.8170749130862948e-03  -3.0613891149256497e-02 -4.8329108452685399e-02 -2.2162630067816377e-02  -1.8920420371887479e-02 -5.4648520121133616e-02 -2.1115317824296039e-02  -1.5464816544046519e-02 -4.7641305136216096e-02 -1.9983816432948189e-02  -1.0437171039825728e-02 -4.7315817350621819e-02 1.9424816439592870e-02  -9.6527080513197569e-03 -3.9857251339521865e-02 1.8647015157993257e-02  -1.4782506453332239e-02 -4.5311701578430751e-02 1.5507794830275040e-02  2.9070995571761165e-02 -4.2373034767867683e-02 8.6768211595645208e-03  2.4645321595464943e-02 -3.8887916984208473e-02 9.2031739212788243e-03  -3.0628196875805140e-02 -4.4196159879430305e-02 -6.7217778188347942e-03  -1.6491911874619576e-02 -3.3960667512267902e-02 -1.5585899084499165e-02  -2.0583960724770617e-02 -3.5809203807987230e-02 -1.2809413675553334e-02  -1.5527958024073482e-02 -3.5775917364628367e-02 -1.3164707645457983e-02  -1.7467824105357181e-02 -3.0050539834264183e-02 -1.3157346167013802e-02  -1.5640336533818449e-02 -3.8712283101923033e-02 5.0733518075371466e-04  -1.7859270639102167e-02 -4.0750146091694882e-02 1.5483772559947732e-03  2.0768509812471601e-02 -4.3161383344393185e-02 -6.7139175968921536e-03  2.4280676742109791e-02 -4.8655798964464585e-02 -8.3457038397172709e-03  3.0848019611915616e-02 -3.9399934255836544e-02 -9.4209641197997122e-03  3.4825187700122731e-02 -4.1543072874669552e-02 -7.0649011106850342e-03  1.1130281212467357e-02 -4.3479999945361739e-02 -5.5433432517443893e-03  1.3223356445706085e-02 -4.6549009150178990e-02 -8.7368744611081850e-03  5.9561491068899092e-03 -4.0747337178843678e-02 -4.7647231551486823e-03  1.2642865531252989e-02 -3.6924239270297428e-02 1.2757490985348986e-02  1.2020579865930943e-02 -3.2520715510693882e-02 1.2963585449747060e-02  1.7245668814276523e-02 -3.4256854561361912e-02 1.2562804938761597e-02  1.4911349711421985e-02 -3.3866220217382281e-02 1.0910852474217383e-02  4.0898619469992995e-03 -4.1699082600645539e-02 -2.0300303381495899e-03  -2.1728953375092151e-02 -4.6844816186238092e-02 1.4090944724061123e-02  1.9285677623309145e-02 -5.3813554685644131e-02 -2.2187443463892811e-02  2.4248996011063347e-02 -4.5925898437719055e-02 -2.7313087928180994e-02  -1.4969335918038576e-02 -4.2460377162816740e-02 -4.9231382857436307e-03  2.1527617689640278e-02 -4.2047511457509755e-02 -1.4208141434110227e-03  2.9560769446306610e-02 -4.7211134985689081e-02 3.1227222863971783e-04  -3.4151982167779135e-02 -4.9539887934649841e-02 1.6134981168881405e-02  -1.9622060154541082e-02 -5.6853785477115178e-02 1.7565758716241570e-02  1.7903345898050208e-02 -3.7248661053581628e-02 4.2930507341809232e-03  1.8217341726215898e-02 -3.9845873087391230e-02 8.0966111545231478e-03  -1.3384485671820354e-02 -3.9534397318794844e-02 2.6241072713542521e-03  -1.7321904984990050e-02 -4.0514691708664417e-02 4.1581162371218949e-03  -2.0395359202765705e-02 -3.6491843073394870e-02 1.4477428204891230e-03  -2.0633482111352457e-02 -4.1654421262998266e-02 -1.1057120875168535e-02  2.3981645549181609e-02 -2.9156354150273026e-02 -1.0285712371338530e-02  2.0366545976987425e-02 -3.1982959236332854e-02 -1.0026685473437715e-02  2.3780422866279120e-02 -3.3642148801555444e-02 -1.2974459053678463e-02  2.0132276757153414e-02 -2.7976385287928864e-02 -1.3388115186843295e-02  -1.3432239017947932e-02 -3.6450015963326345e-02 -9.0629778884891328e-03  -1.1873961437668192e-02 -4.1793411897781525e-02 -8.9542910445287831e-03  -1.6849420647649934e-02 -3.7896307801289011e-02 -1.0584435134089095e-02  -7.9707338739308051e-03 -4.0563703860468370e-02 -1.0455421272408597e-02  2.1627924737831070e-02 -3.7128939897727045e-02 -7.1486013073824703e-03  2.1613828450453797e-02 -3.4027681184781562e-02 -5.2948282817843542e-03  2.3815183297937321e-02 -3.1616368197101979e-02 -7.7618613108020162e-03  1.7863214809805052e-02 -3.5888250429120923e-02 -6.8005625966941910e-03  9.4247110769476849e-03 -4.0490421846520644e-02 -2.7093953697316445e-03  1.3163528603538706e-02 -3.9164455034064710e-02 -9.6267782548539228e-04  -9.2109559411695779e-03 -6.1577140326353794e-02 2.1103038743398246e-04  -1.3300514345922110e-02 -4.0036297064633276e-02 -1.2919040451668808e-02  -1.4525675877696776e-02 -4.8876693944016343e-02 -1.3223406884688286e-02  1.5117622673550308e-02 -4.1619134946997996e-02 5.8187335567205919e-04  3.6558071079996042e-02 -4.8496687720467981e-02 -1.2968095265379845e-02  4.3879465256212322e-02 -4.2308089438254988e-02 -9.9110359546218888e-03 