<?xml version="1.0"?>
<VTKFile type="UnstructuredGrid"  version="0.1"  >
<UnstructuredGrid>
<Piece  NumberOfPoints="552" NumberOfCells="2230">
<Points>
<DataArray  type="Float64"  NumberOfComponents="3"  format="ascii">1.497553933621271 -0.9299888952757689 1.051401708821963  1.723509454997661 -0.9978215353029387 0.8599387015306912  1.603175712833004 -0.7179780603154297 1.166971448621335  1.738670460969055 -0.9694572881401065 1.232012655497408  1.269947058333062 0.3626388851459498 2.684274026195443  1.4767278390955 0.2359207298638786 3  1.484813864121234 0.5896749138753508 3  1.247559817212835 0.2481550766895392 3  1.166099747272017 0.6275808168611772 1.569671802422877  1.246343196849299 0.2871914511843041 1.463260603318937  0.9081186916187176 0.4121698917342359 1.495578929490344  1.115014914449755 0.664178382377357 1.231298039236009  1.266922126336883 -0.8552825601474245 0.9890793869444463  1.603499978712499 -0.7599911991864079 0.858510318126826  1.582421191264103 -0.5272061569022808 0.9863163909996424  1.339507718413847 -0.6999225836316151 1.171427264265846  1.331631675302982 1.075644226590585 0.7427025225229377  1.491416493164115 1.320141519018512 0.7572846653028551  1.266603435826646 1.134828903839546 1.021613359460302  1.656495002398096 1.1189927735181 0.8921219209227598  0.8415248583882122 0.8186074859553321 2.762647266441338  1.01017680706372 0.7830812049227713 3  0.8520051501267096 0.5171509439852667 3  1.126888954052144 0.6681851394435211 2.695702277715691  0.9530377358237719 0.9485576382829037 2.633905012019921  0.785242760231733 0.6118978152447206 2.59205970188895  0.9142417789429336 0.827459334637151 2.360146602251166  1.410318934244185 -0.9111586153381305 0  1.465907151919879 -0.9984730424788163 0.2172742162374254  1.733506800037224 -0.9791178182666612 0  1.479909993475237 -0.7682026425289157 0.2858410267811749  1.352469951392823 1.157329253277371 1.459232049490172  1.601614723428512 1.185864586927789 1.531841789053977  1.394496726906461 1.019249133009212 1.666860244828857  1.500640819621185 0.9293140676957232 1.456133308611717  1.122229454200134 1.225737995178475 2.534786329470682  1.165637108013253 0.7851941080111963 2.453728939295619  1.152002961473718 0.9976054101454552 2.28508978773055  1.641183972767365 -0.08086354815262135 1.91319189243527  1.322657908994097 0.07314712133113015 1.84571429568965  1.421160066354013 0.1648031196956253 1.618618604393672  1.474883172881394 -0.09108440626897743 1.582406010911425  1.139053451992402 0.580641381212873 0.5104985438510611  0.79840087828554 0.5958646020060542 0.6027225483598206  0.914171071328564 0.4008466857189293 0.3058452473438621  0.9066528007298537 0.4149123806933417 0.7553452832223546  1.661433677745688 0.4567965262230854 1.528680796761813  1.413258630617723 0.4957320168241518 1.296573873598289  1.362619788599672 0.3978435692102224 1.734130052315586  1.216567604785609 0.1658433812605938 2.054253110628363  0.9494366041924407 0.2984330579181564 2.125369844989875  0.9991865259473796 -0.008259340662152212 2.287968233049495  1.240986756051685 0.3126806997713886 2.286683081109373  1.501145165591527 0.715944735626173 1.591166637112397  1.631081950642508 0.6600294884663581 1.382165194515427  1.695169390034988 -0.07534086820466786 0.2893799747718582  1.549467691542403 -0.4491521444899907 0.3730949252242547  1.726406769544368 -0.3263466495875754 0.2261722903773296  1.714237189425319 -0.2101819387451271 0.5200727776800095  0.7852427602317333 0.6118978152447203 2.762235612167714  0.7117128119686211 0.7014943164396241 3  0.9777758768151188 -1.348216993986192 0.9918469369685869  1.095144249706515 -0.9991198228822549 0.877457965196244  1.281164483440818 -1.100695283167518 1.179269542298964  1.321427586485184 -1.181768205949974 0.8641150343349495  1.323612625207123 1.193287094455838 2.176021006508231  1.167928895928782 1.173882084854657 1.94145071994378  1.031766936443343 1.348283730697958 2.231342139160024  1.787272571795037 -0.8785291342494904 0.2673821819830821  1.841038343552851 -0.7779404502323188 0  1.684285838260382 -0.5576451795149887 0.2134436497599698  1.942868251577821 0.4518338950460338 0.3134538353217151  1.605332365585403 0.2285011191471091 0.3448026455806886  1.977641053560121 0.2270141928915059 0.2557860430762646  1.977641053560121 0.2270141928915059 0.4492520385318801  1.998838593134564 0.01179196179410744 0.5534736031975531  1.988386919539986 0.117909584635533 0.7692837751537056  1.708697052989893 -0.1278824122201236 0.7950025566764369  1.977641053560123 -0.2270141928914856 0.5658979254802281  1.748002867292792 -0.2613956547999485 2.792669189507735  1.895352963259474 -0.6084708088019486 2.660602090829001  1.983929507246339 -0.163166451140751 2.703850436932474  1.928461762032969 -0.499325726417098 3  0.7734943668628017 0.6262132739847579 1.290516220347056  0.6155714332069855 0.782227899884495 1.116995164022528  0.8135740139693522 0.9214686948614513 1.281296001132774  0.9585684782132136 0.8445876564570292 1.040074403278019  1.347042302807274 -0.9006190768097603 2.624250684732806  1.710040840164151 -1.02301954134551 2.504937398631578  1.495306936077182 -0.9680374669233975 2.78733531921882  1.581538098783715 -1.210328024839381 2.672080046702937  1.660059562757285 0.2119384033264062 1.720507002659895  1.968557267095729 0.3192434246291332 1.888359676380478  1.899814479886063 0.5937631595422528 1.793371101941705  1.608182956164474 0.543976366073243 1.804733138884222  1.022899481669183 -0.8720254180038959 1.208965058497697  0.7565147063597757 -0.6469030501709819 1.110841064724566  0.8759584548557765 -0.4723374628096901 1.037838019869259  1.124942306796477 -0.6639412424209992 0.9123567056972074  1.67895408362749 0.4370489797473934 1.156838159739098  1.909642903303957 0.5613631896430733 1.335302611914956  1.188179795098442 0.1808005360122215 0.1982206534656708  1.244869039909235 0.2476198478059887 0  0.9470633557265229 0.3062566096303283 0  1.278859660179556 0.3268370880171415 0.3302070387997395  1.42305500163819 -0.235261026525197 1.33986711601181  1.23143457712679 -0.087024358618913 1.44822462272553  1.252588462798452 -0.3037578293719645 1.673769628224802  1.862287014276638 -0.717474634357655 1.478380477626664  1.951729332652096 -0.4226228254905615 1.684165591503963  1.635464373222559 -0.6340084936718524 1.630114852910802  1.884636203808672 -0.6437992301427082 1.808589540450422  1.889322757365143 -0.6283497335444969 0.5738378286160368  1.942868251577826 -0.4518338950460145 0.3534671174188525  1.87676409667126 -0.6697500895481858 0.2897313307860865  1.627267295473881 -0.7319606141220405 2.76804050033594  1.86224416448598 -0.7176158911867992 3  1.596314120694009 7.271960811294775e-15 0  1.770872021915538 0.1321725600421538 0.2156708121571308  1.98882052678006 0.1135070964457581 0  1.727038821644253 0.2023320273856744 0  1.521306094869681 -0.679876513307954 3  1.647445638758131 -0.5285306936744546 3  1.438206875785329 0.7197698650596768 0.3842777712044098  1.584858964729974 0.7447906552294696 0.1874708327260145  1.36749920480456 1.005350704390361 0.2928801506650885  1.679852743081404 1.079497498589653 0.3246036746331542  1.374537895574029 -0.565527493733493 0.7062807409973615  1.406003023520686 -0.9066631863480832 0.7562857402274894  1.036590094932914 -0.7077778032396923 0.5744980369504201  1.143117929213057 -1.332984790918304 1.291712047176803  1.211759553235815 -1.580363273790293 1.573400789366199  1.376292578884149 -1.445334509249837 1.428334545287665  1.179683632199664 -1.606687301880956 1.194714787904707  1.727831496223673 0.3053975023895797 2.753589765076476  1.969983309772718 0.3047645703496642 2.600364578287666  1.957431960959771 0.4038237793303748 3  1.982532073093845 0.1773548381964919 3  1.434201923315457 0.6898089408598096 0  1.733506800037214 0.9791178182666787 0  1.429586372154414 0.9231922039811385 0  1.337134696909384 -1.009751336514745 3  1.337727742492635 -1.134018345326675 2.760070239660308  1.509181542498043 -1.298494743772877 3  1.090422153579626 -1.323064863073947 3  0.8912759720074899 -0.4436804038235074 2.342440520988019  0.8726087114059971 -0.478604392017481 2.561785648061043  1.074387660584865 -0.7413601581968685 2.512562118945251  1.282379866447789 -0.4712667190396849 2.628283478693501  1.991569571675232 0.0855955752218884 1.234881321711428  1.999999999999999 1.056237892248978e-14 1.498246855335964  1.641919140899937 0.1895781493796465 1.370667494351562  1.666086308269792 -0.1297951300767494 1.32416441731503  1.876764096671261 -0.669750089548184 0.8592438288234936  1.866053332419584 -0.7050587473660511 1.180732539244401  1.777974709034347 0.2014836567612767 2.194231021100105  1.751812448427155 0.1452212327923848 1.947848860599114  1.68869356667868 -0.03995619810865415 2.231368422887011  1.501918822463875 0.1976329650058682 2.113752684885754  1.160443483716708 0.9475900092150403 1.167203002723368  1.252456121015855 0.9304429933793548 1.409616570295079  1.543404142441013 0.7766799381092869 1.176259972315923  1.364035053494059 -0.6332246414940789 1.651635798090307  1.578345588653854 -0.4484070890946016 1.369656974329539  1.602853999223423 -0.3846511175337285 1.734494465800862  1.265432224172826 -1.536315251105162 2.634595007572392  1.184600732689512 -1.317868085482662 2.779272303333936  0.9801666994139839 0.1971295102541218 1.864687898271195  0.9961930054511243 -0.03865306431943142 1.825785329347914  1.714133850753991 -0.009526106923234176 1.062168169206496  1.670898484193412 0.1858410549600799 0.6740034087550382  1.543936495769325 0.2175006024263709 0.9921183876926787  1.710145243741435 0.3606197036126997 0.8582413234281099  1.808842807264607 -0.838174062074613 0.7078804865279258  1.077168197567472 1.22108614020189 0.7886821271081074  0.9558336858219978 1.133613571114183 1.140304209729167  1.112611018414472 0.9659842198834007 0.8346122094258748  1.475357266467591 -0.0890608896979575 0.5145105409779778  1.251896599718518 0.1182866894121717 0.5544979304461281  1.549911663318429 -0.6784416973751866 2.525352283070309  1.73690136321656
[...]
<PointData  Vectors="f_18"> 
<DataArray  type="Float64"  Name="f_18"  NumberOfComponents="3" format="ascii">0.0000000000000000e+00 0.0000000000000000e+00 0.0000000000000000e+00  0.0000000000000000e+00 0.0000000000000000e+00 0.0000000000000000e+00  0.0000000000000000e+00 0.0000000000000000e+00 0.0000000000000000e+00  0.0000000000000000e+00 0.0000000000000000e+00 0.0000000000000000e+00  0.0000000000000000e+00 0.0000000000000000e+00 0.0000000000000000e+00  0.0000000000000000e+00 0.0000000000000000e+00 0.0000000000000000e+00  0.0000000000000000e+00 0.0000000000000000e+00 0.0000000000000000e+00  0.0000000000000000e+00 0.0000000000000000e+00 0.0000000000000000e+00  0.0000000000000000e+00 0.0000000000000000e+00 0.0000000000000000e+00  0.0000000000000000e+00 0.0000000000000000e+00 0.0000000000000000e+00  0.0000000000000000e+00 0.0000000000000000e+00 0.0000000000000000e+00  0.0000000000000000e+00 0.0000000000000000e+00 0.0000000000000000e+00  0.0000000000000000e+00 0.0000000000000000e+00 0.0000000000000000e+00  0.0000000000000000e+00 0.0000000000000000e+00 0.0000000000000000e+00  0.0000000000000000e+00 0.0000000000000000e+00 0.0000000000000000e+00  0.0000000000000000e+00 0.0000000000000000e+00 0.0000000000000000e+00  0.0000000000000000e+00 0.0000000000000000e+00 0.0000000000000000e+00  0.0000000000000000e+00 0.0000000000000000e+00 0.0000000000000000e+00  0.0000000000000000e+00 0.0000000000000000e+00 0.0000000000000000e+00  0.0000000000000000e+00 0.0000000000000000e+00 0.0000000000000000e+00  0.0000000000000000e+00 0.0000000000000000e+00 0.0000000000000000e+00  0.0000000000000000e+00 0.0000000000000000e+00 0.0000000000000000e+00  0.0000000000000000e+00 0.0000000000000000e+00 0.0000000000000000e+00  0.0000000000000000e+00 0.0000000000000000e+00 0.0000000000000000e+00  0.0000000000000000e+00 0.0000000000000000e+00 0.0000000000000000e+00  0.0000000000000000e+00 0.0000000000000000e+00 0.0000000000000000e+00  0.0000000000000000e+00 0.0000000000000000e+00 0.0000000000000000e+00  0.0000000000000000e+00 0.0000000000000000e+00 0.0000000000000000e+00  0.0000000000000000e+00 0.0000000000000000e+00 0.0000000000000000e+00  0.0000000000000000e+00 0.0000000000000000e+00 0.0000000000000000e+00  0.0000000000000000e+00 0.0000000000000000e+00 0.0000000000000000e+00  0.0000000000000000e+00 0.0000000000000000e+00 0.0000000000000000e+00  0.0000000000000000e+00 0.0000000000000000e+00 0.0000000000000000e+00  0.0000000000000000e+00 0.0000000000000000e+00 0.0000000000000000e+00  0.0000000000000000e+00 0.0000000000000000e+00 0.0000000000000000e+00  0.0000000000000000e+00 0.0000000000000000e+00 0.0000000000000000e+00  0.0000000000000000e+00 0.0000000000000000e+00 0.0000000000000000e+00  0.0000000000000000e+00 0.0000000000000000e+00 0.0000000000000000e+00  0.0000000000000000e+00 0.0000000000000000e+00 0.0000000000000000e+00  0.0000000000000000e+00 0.0000000000000000e+00 0.0000000000000000e+00  0.0000000000000000e+00 0.0000000000000000e+00 0.0000000000000000e+00  0.0000000000000000e+00 0.0000000000000000e+00 0.0000000000000000e+00  0.0000000000000000e+00 0.0000000000000000e+00 0.0000000000000000e+00  0.0000000000000000e+00 0.0000000000000000e+00 0.0000000000000000e+00  0.0000000000000000e+00 0.0000000000000000e+00 0.0000000000000000e+00  0.0000000000000000e+00 0.0000000000000000e+00 0.0000000000000000e+00  0.0000000000000000e+00 0.0000000000000000e+00 0.0000000000000000e+00  0.0000000000000000e+00 0.0000000000000000e+00 0.0000000000000000e+00  0.0000000000000000e+00 0.0000000000000000e+00 0.0000000000000000e+00  0.0000000000000000e+00 0.0000000000000000e+00 0.0000000000000000e+00  0.0000000000000000e+00 0.0000000000000000e+00 0.0000000000000000e+00  0.0000000000000000e+00 0.0000000000000000e+00 0.0000000000000000e+00  0.0000000000000000e+00 0.0000000000000000e+00 0.0000000000000000e+00  0.0000000000000000e+00 0.0000000000000000e+00 0.0000000000000000e+00  0.0000000000000000e+00 0.0000000000000000e+00 0.0000000000000000e+00  0.0000000000000000e+00 0.0000000000000000e+00 0.0000000000000000e+00  0.0000000000000000e+00 0.0000000000000000e+00 0.0000000000000000e+00  0.0000000000000000e+00 0.0000000000000000e+00 0.0000000000000000e+00  0.0000000000000000e+00 0.0000000000000000e+00 0.0000000000000000e+00  0.0000000000000000e+00 0.0000000000000000e+00 0.0000000000000000e+00  0.0000000000000000e+00 0.0000000000000000e+00 0.0000000000000000e+00  0.0000000000000000e+00 0.0000000000000000e+00 0.0000000000000000e+00  0.0000000000000000e+00 0.0000000000000000e+00 0.0000000000000000e+00  0.0000000000000000e+00 0.0000000000000000e+00 0.0000000000000000e+00  0.0000000000000000e+00 0.0000000000000000e+00 0.0000000000000000e+00  0.0000000000000000e+00 0.0000000000000000e+00 0.0000000000000000e+00  0.0000000000000000e+00 0.0000000000000000e+00 0.0000000000000000e+00  0.0000000000000000e+00 0.0000000000000000e+00 0.0000000000000000e+00  0.0000000000000000e+00 0.0000000000000000e+00 0.0000000000000000e+00  0.0000000000000000e+00 0.0000000000000000e+00 0.0000000000000000e+00  0.0000000000000000e+00 0.0000000000000000e+00 0.0000000000000000e+00  0.0000000000000000e+00 0.0000000000000000e+00 0.0000000000000000e+00  0.0000000000000000e+00 0.0000000000000000e+00 0.0000000000000000e+00  0.0000000000000000e+00 0.0000000000000000e+00 0.0000000000000000e+00  0.0000000000000000e+00 0.0000000000000000e+00 0.0000000000000000e+00  0.0000000000000000e+00 0.0000000000000000e+00 0.0000000000000000e+00  0.0000000000000000e+00 0.0000000000000000e+00 0.0000000000000000e+00  0.0000000000000000e+00 0.0000000000000000e+00 0.0000000000000000e+00  0.0000000000000000e+00 0.0000000000000000e+00 0.0000000000000000e+00  0.0000000000000000e+00 0.0000000000000000e+00 0.0000000000000000e+00  0.0000000000000000e+00 0.0000000000000000e+00 0.0000000000000000e+00  0.0000000000000000e+00 0.0000000000000000e+00 0.0000000000000000e+00  0.0000000000000000e+00 0.0000000000000000e+00 0.0000000000000000e+00  0.0000000000000000e+00 0.0000000000000000e+00 0.0000000000000000e+00  0.0000000000000000e+00 0.0000000000000000e+00 0.0000000000000000e+00  0.0000000000000000e+00 0.0000000000000000e+00 0.0000000000000000e+00  0.0000000000000000e+00 0.0000000000000000e+00 0.0000000000000000e+00  0.0000000000000000e+00 0.0000000000000000e+00 0.0000000000000000e+00  0.0000000000000000e+00 0.0000000000000000e+00 0.0000000000000000e+00  0.0000000000000000e+00 0.0000000000000000e+00 0.0000000000000000e+00  0.0000000000000000e+00 0.0000000000000000e+00 0.0000000000000000e+00  0.0000000000000000e+00 0.0000000000000000e+00 0.0000000000000000e+00  0.0000000000000000e+00 0.0000000000000000e+00 0.0000000000000000e+00  0.0000000000000000e+00 0.0000000000000000e+00 0.0000000000000000e+00  0.0000000000000000e+00 0.0000000000000000e+00 0.0000000000000000e+00  0.0000000000000000e+00 0.0000000000000000e+00 0.0000000000000000e+00  0.0000000000000000e+00 0.0000000000000000e+00 0.0000000000000000e+00  0.0000000000000000e+00 0.0000000000000000e+00 0.0000000000000000e+00  0.0000000000000000e+00 0.0000000000000000e+00 0.0000000000000000e+00  0.0000000000000000e+00 0.0000000000000000e+00 0.0000000000000000e+00  0.0000000000000000e+00 0.0000000000000000e+00 0.0000000000000000e+00  0.0000000000000000e+00 0.0000000000000000e+00 0.0000000000000000e+00  0.0000000000000000e+00 0.0000000000000000e+00 0.0000000000000000e+00  0.0000000000000000e+00 0.0000000000000000e+00 0.0000000000000000e+00  0.0000000000000000e+00 0.0000000000000000e+00 0.0000000000000000e+00  0.0000000000000000e+00 0.0000000000000000e+00 0.0000000000000000e+00  0.0000000000000000e+00 0.0000000000000000e+00 0.0000000000000000e+00  0.0000000000000000e+00 0.0000000000000000e+00 0.0000000000000000e+00  0.0000000000000000e+00 0.0000000000000000e+00 0.0000000000000000e+00  0.0000000000000000e+00 0.0000000000000000e+00 0.0000000000000000e+00  0.0000000000000000e+00 0.0000000000000000e+00 0.0000000000000000e+00  0.0000000000000000e+00 0.0000000000000000e+00 0.0000000000000000e+00  0.0000000000000000e+00 0.0000000000000000e+00 0.0000000000000000e+00  0.0000000000000000e+00 0.0000000000000000e+00 0.0000000000000000e+00  0.0000000000000000e+00 0.0000000000000000e+00 0.0000000000000000e+00  0.0000000000000000e+00 0.0000000000000000e+00 0.0000000000000000e+00  0.0000000000000000e+00 0.0000000000000000e+00 0.0000000000000000e+00  0.0000000000000000e+00 0.0000000000000000e+00 0.0000000000000000e+00  0.0000000000000000e+00 0.0000000000000000e+00 0.0000000000000000e+00  0.0000000000000000e+00 0.0000000000000000e+00 0.0000000000000000e+00  0.0000000000000000e+00 0.0000000000000000e+00 0.0000000000000000e+00  0.0000000000000000e+00 0.0000000000000000e+00 0.0000000000000000e+00  0.0000000000000000e+00 0.0000000000000000e+00 0.0000000000000000e+00  0.0000000000000000e+00 0.0000000000000000e+00 0.0000000000000000e+00  0.0000000000000000e+00 0.0000000000000000e+00 0.0000000000000000e+00  0.0000000000000000e+00 0.0000000000000000e+00 0.0000000000000000e+00  0.0000000000000000e+00 0.0000000000000000e+00 0.0000000000000000e+00  0.0000000000000000e+00 0.0000000000000000e+00 0.0000000000000000e+00  0.0000000000000000e+00 0.0000000000000000e+00 0.0000000000000000e+00  0.0000000000000000e+00 0.0000000000000000e+00 0.0000000000000000e+00  0.0000000000000000e+00 0.0000000000000000e+00 0.0000000000000000e+00  0.0000000000000000e+00 0.0000000000000000e+00 0.0000000000000000e+00  0.0000000000000000e+00 0.0000000000000000e+00 0.0000000000000000e+00  0.0000000000000000e+00 0.0000000000000000e+00 0.0000000000000000e+00  0.0000000000000000e+00 0.0000000000000000e+00 0.0000000000000000e+00  0.0000000000000000e+00 0.0000000000000000e+00 0.0000000000000000e+00  0.0000000000000000e+00 0.0000000000000000e+00 0.0000000000000000e+00  0.0000000000000000e+00 0.0000000000000000e+00 0.0000000000000000e+00  0.0000000000000000e+00 0.0000000000000000e+00 0.0000000000000000e+00  0.0000000000000000e+00 0.0000000000000000e+00 0.0000000000000000e+00  0.0000000000000000e+00 0.0000000000000000e+00 0.0000000000000000e+00  0.0000000000000000e+00 0.0000000000000000e+00 0.0000000000000000e+00  0.0000000000000000e+00 0.0000000000000000e+00 0.0000000000000000e+00  0.0000000000000000e+00 0.0000000000000000e+00 0.0000000000000000e+00  0.0000000000000000e+00 0.0000000000000000e+00 0.0000000000000000e+00  0.0000000000000000e+00 0.0000000000000000e+00 0.0000000000000000e+00  0.0000000000000000e+00 0.0000000000000000e+00 0.0000000000000000e+00  0.0000000000000000e+00 0.0000000000000000e+00 0.0000000000000000e+00  0.0000000000000000e+00 0.0000000000000000e+00 0.0000000000000000e+00  0.0000000000000000e+00 0.0000000000000000e+00 0.0000000000000000e+00  0.0000000000000000e+00 0.0000000000000000e+00 0.0000000000000000e+00  0.0000000000000000e+00 0.0000000000000000e+00 0.0000000000000000e+00  0.0000000000000000e+00 0.0000000000000000e+00 0.0000000000000000e+00  0.0000000000000000e+00 0.0000000000000000e+00 0.0000000000000000e+00  0.0000000000000000e+00 0.0000000000000000e+00 0.0000000000000000e+00  0.0000000000000000e+00 0.0000000000000000e+00 0.0000000000000000e+00  0.0000000000000000e+00 0.0000000000000000e+00 0.0000000000000000e+00  0.0000000000000000e+00 0.0000000000000000e+00 0.0000000000000000e+00  0.0000000000000000e+00 0.0000000000000000e+00 0.0000000000000000e+00  0.0000000000000000e+00 0.0000000000000000e+00 0.0000000000000000e+00  0.0000000000000000e+00 0.0000000000000000e+00 0.0000000000000000e+00  0.0000000000000000e+00 0.0000000000000000e+00 0.0000000000000000e+00  0.0000000000000000e+00 0.0000000000000000e+00 0.0000000000000000e+00  0.0000000000000000e+00 0.0000000000000000e+00 0.0000000000000000e+00  0.0000000000000000e+00 0.0000000000000000e+00 0.0000000000000000e+00  0.0000000000000000e+00 0.0000000000000000e+00 0.0000000000000000e+00  0.0000000000000000e+00 0.0000000000000000e+00 0.0000000000000000e+00  0.0000000000000000e+00 0.0000000000000000e+00 0.0000000000000000e+00  0.0000000000000000e+00 0.0000000000000000e+00 0.0000000000000000e+00  0.0000000000000000e+00 0.0000000000000000e+00 0.0000000000000000e+00  0.0000000000000000e+00 0.0000000000000000e+00 0.0000000000000000e+00  0.0000000000000000e+00 0.0000000000000000e+00 0.0000000000000000e+00  0.0000000000000000e+00 0.0000000000000000e+00 0.0000000000000000e+00  0.0000000000000000e+00 0.0000000000000000e+00 0.0000000000000000e+00  0.0000000000000000e+00 0.0000000000000000e+00 0.0000000000000000e+00  0.0000000000000000e+00 0.0000000000000000e+00 0.0000000000000000e+00  0.0000000000000000e+00 0.0000000000000000e+00 0.0000000000000000e+00  0.0000000000000000e+00 0.0000000000000000e+00 0.0000000000000000e+00  0.0000000000000000e+00 0.0000000000000000e+00 0.0000000000000000e+00  0.0000000000000000e+00 0.0000000000000000e+00 0.0000000000000000e+00  0.0000000000000000e+00 0.0000000000000000e+00 0.0000000000000000e+00  0.0000000000000000e+00 0.0000000000000000e+00 0.0000000000000000e+00  0.0000000000000000e+00 0.0000000000000000e+00 0.0000000000000000e+00  0.0000000000000000e+00 0.0000000000000000e+00 0.0000000000000000e+00  0.0000000000000000e+00 0.0000000000000000e+00 0.0000000000000000e+00  0.0000000000000000e+00 0.0000000000000000e+00 0.0000000000000000e+00  0.0000000000000000e+00 0.0000000000000000e+00 0.0000000000000000e+00  0.0000000000000000e+00 0.0000000000000000e+00 0.0000000000000000e+00  0.0000000000000000e+00 0.0000000000000000e+00 0.0000000000000000e+00  0.0000000000000000e+00 0.0000000000000000e+00 0.0000000000000000e+00  0.0000000000000000e+00 0.0000000000000000e+00 0.0000000000000000e+00  0.0000000000000000e+00 0.0000000000000000e+00 0.0000000000000000e+00  0.0000000000000000e+00 0.0000000000000000e+00 0.0000000000000000e+00  0.0000000000000000e+00 0.0000000000000000e+00 0.0000000000000000e+00  0.0000000000000000e+00 0.0000000000000000e+00 0.0000000000000000e+00  0.0000000000000000e+00 0.0000000000000000e+00 0.0000000000000000e+00  0.0000000000000000e+00 0.0000000000000000e+00 0.0000000000000000e+00  0.0000000000000000e+00 0.0000000000000000e+00 0.0000000000000000e+00  0.0000000000000000e+00 0.0000000000000000e+00 0.0000000000000000e+00  0.0000000000000000e+00 0.0000000000000000e+00 0.0000000000000000e+00  0.0000000000000000e+00 0.0000000000000000e+00 0.0000000000000000e+00  0.0000000000000000e+00 0.0000000000000000e+00 0.0000000000000000e+00  0.0000000000000000e+00 0.0000000000000000e+00 0.0000000000000000e+00  0.0000000000000000e+00 0.0000000000000000e+00 0.0000000000000000e+00  0.0000000000000000e+00 0.0000000000000000e+00 0.0000000000000000e+00  0.0000000000000000e+00 0.0000000000000000e+00 0.0000000000000000e+00  0.0000000000000000e+00 0.0000000000000000e+00 0.0000000000000000e+00  0.0000000000000000e+00 0.0000000000000000e+00 0.0000000000000000e+00  0.0000000000000000e+00 0.0000000000000000e+00 0.0000000000000000e+00  0.0000000000000000e+00 0.0000000000000000e+00 0.0000000000000000e+00  0.0000000000000000e+00 0.0000000000000000e+00 0.0000000000000000e+00  0.0000000000000000e+00 0.0000000000000000e+00 0.0000000000000000e+00  0.0000000000000000e+00 0.0000000000000000e+00 0.0000000000000000e+00  0.0000000000000000e+00 0.0000000000000000e+00 0.0000000000000000e+00  0.0000000000000000e+00 0.0000000000000000e+00 0.0000000000000000e+00  0.0000000000000000e+00 0.0000000000000000e+00 0.0000000000000000e+00  0.0000000000000000e+00 0.0000000000000000e+00 0.0000000000000000e+00  0.0000000000000000e+00 0.0000000000000000e+00 0.0000000000000000e+00  0.0000000000000000e+00 0.0000000000000000e+00 0.0000000000000000e+00  0.0000000000000000e+00 0.0000000000000000e+00 0.0000000000000000e+00  0.0000000000000000e+00 0.0000000000000000e+00 0.0000000000000000e+00  0.0000000000000000e+00 0.0000000000000000e+00 0.0000000000000000e+00  0.0000000000000000e+00 0.0000000000000000e+00 0.0000000000000000e+00  0.0000000000000000e+00 0.0000000000000000e+00 0.0000000000000000e+00  0.0000000000000000e+00 0.0000000000000000e+00 0.0000000000000000e+00  0.0000000000000000e+00 0.0000000000000000e+00 0.0000000000000000e+00  0.0000000000000000e+00 0.0000000000000000e+00 0.0000000000000000e+00  0.0000000000000000e+00 0.0000000000000000e+00 0.0000000000000000e+00  0.0000000000000000e+00 0.0000000000000000e+00 0.0000000000000000e+00  0.0000000000000000e+00 0.0000000000000000e+00 0.0000000000000000e+00  0.0000000000000000e+00 0.0000000000000000e+00 0.0000000000000000e+00  0.0000000000000000e+00 0.0000000000000000e+00 0.0000000000000000e+00  0.0000000000000000e+00 0.0000000000000000e+00 0.0000000000000000e+00  0.0000000000000000e+00 0.0000000000000000e+00 0.0000000000000000e+00  0.0000000000000000e+00 0.0000000000000000e+00 0.0000000000000000e+00  0.0000000000000000e+00 0.0000000000000000e+00 0.0000000000000000e+00  0.0000000000000000e+00 0.0000000000000000e+00 0.0000000000000000e+00  0.0000000000000000e+00 0.0000000000000000e+00 0.0000000000000000e+00  0.0000000000000000e+00 0.0000000000000000e+00 0.0000000000000000e+00  0.0000000000000000e+00 0.0000000000000000e+00 0.0000000000000000e+00  0.0000000000000000e+00 0.0000000000000000e+00 0.0000000000000000e+00  0.0000000000000000e+00 0.0000000000000000e+00 0.0000000000000000e+00  0.0000000000000000e+00 0.0000000000000000e+00 0.0000000000000000e+00  0.0000000000000000e+00 0.0000000000000000e+00 0.0000000000000000e+00  0.0000000000000000e+00 0.0000000000000000e+00 0.0000000000000000e+00  0.0000000000000000e+00 0.0000000000000000e+00 0.0000000000000000e+00  0.0000000000000000e+00 0.0000000000000000e+00 0.0000000000000000e+00  0.0000000000000000e+00 0.0000000000000000e+00 0.0000000000000000e+00  0.0000000000000000e+00 0.0000000000000000e+00 0.0000000000000000e+00  0.0000000000000000e+00 0.0000000000000000e+00 0.0000000000000000e+00  0.0000000000000000e+00 0.0000000000000000e+00 0.0000000000000000e+00  0.0000000000000000e+00 0.0000000000000000e+00 0.0000000000000000e+00  0.0000000000000000e+00 0.0000000000000000e+00 0.0000000000000000e+00  0.0000000000000000e+00 0.0000000000000000e+00 0.0000000000000000e+00  0.0000000000000000e+00 0.0000000000000000e+00 0.0000000000000000e+00  0.0000000000000000e+00 0.0000000000000000e+00 0.0000000000000000e+00  0.0000000000000000e+00 0.0000000000000000e+00 0.0000000000000000e+00  0.0000000000000000e+00 0.0000000000000000e+00 0.0000000000000000e+00  0.0000000000000000e+00 0.0000000000000000e+00 0.0000000000000000e+00  0.0000000000000000e+00 0.0000000000000000e+00 0.0000000000000000e+00  0.0000000000000000e+00 0.0000000000000000e+00 0.0000000000000000e+00  0.0000000000000000e+00 0.0000000000000000e+00 0.0000000000000000e+00  0.0000000000000000e+00 0.0000000000000000e+00 0.0000000000000000e+00  0.0000000000000000e+00 0.0000000000000000e+00 0.0000000000000000e+00  0.0000000000000000e+00 0.0000000000000000e+00 0.0000000000000000e+00  0.0000000000000000e+00 0.0000000000000000e+00 0.0000000000000000e+00  0.0000000000000000e+00 0.0000000000000000e+00 0.0000000000000000e+00  0.0000000000000000e+00 0.0000000000000000e+00 0.0000000000000000e+00  0.0000000000000000e+00 0.0000000000000000e+00 0.0000000000000000e+00  0.0000000000000000e+00 0.0000000000000000e+00 0.0000000000000000e+00  0.0000000000000000e+00 0.0000000000000000e+00 0.0000000000000000e+00  0.0000000000000000e+00 0.0000000000000000e+00 0.0000000000000000e+00  0.0000000000000000e+00 0.0000000000000000e+00 0.0000000000000000e+00  0.0000000000000000e+00 0.0000000000000000e+00 0.0000000000000000e+00  0.0000000000000000e+00 0.0000000000000000e+00 0.0000000000000000e+00  0.0000000000000000e+00 0.0000000000000000e+00 0.0000000000000000e+00  0.0000000000000000e+00 0.0000000000000000e+00 0.0000000000000000e+00  0.0000000000000000e+00 0.0000000000000000e+00 0.0000000000000000e+00  0.0000000000000000e+00 0.0000000000000000e+00 0.0000000000000000e+00  0.0000000000000000e+00 0.0000000000000000e+00 0.0000000000000000e+00  0.0000000000000000e+00 0.0000000000000000e+00 0.0000000000000000e+00  0.0000000000000000e+00 0.0000000000000000e+00 0.0000000000000000e+00  0.0000000000000000e+00 0.0000000000000000e+00 0.0000000000000000e+00  0.0000000000000000e+00 0.0000000000000000e+00 0.0000000000000000e+00  0.0000000000