<?xml version="1.0"?>
<VTKFile type="UnstructuredGrid"  version="0.1"  >
<UnstructuredGrid>
<Piece  NumberOfPoints="115" NumberOfCells="303">
<Points>
<DataArray  type="Float64"  NumberOfComponents="3"  format="ascii">0.6305366219362482 1.461672021701259 2.573137157518678  0.3505506524007391 1.439119323266543 2.229124975212371  0.7233515360664949 1.860504275633375 2.143566592013062  1.16929327003969 1.615214451734676 2.02523850809439  0.850549934291718 1.02575904982513 0.5353204991820871  0.9958825989361937 1.724545838077586 0  0.79119686240752 1.833952643622452 0.6008470958115142  1.190141907336148 1.598104417287793 0.790786027167462  -0.6813513412608918 1.373329703138566 1.700767684044582  -1.111645100464135 1.018766509541888 1.580900689761718  -1.059542960476273 1.69051866591576 1.998542381954114  -1.170945775598536 1.613858275470806 1.514352004916045  0.1821743391565473 1.595435930750562 2.5903667231274  -0.1879604925798806 1.981487507310104 2.257437501874302  -0.4179722159358051 1.953140079637284 3  0.04335340489247286 1.995730062311829 3  0.9025541663092692 0.4225803863622857 0  1.135486067825821 0.947534454009326 0  0.6021968632248157 0.7932041258053155 0  -0.5131581223052614 1.382860631703773 1.129235146161471  -0.02829600397680024 0.9972130868589251 1.611363293353632  0.06779261740588695 1.516765368192542 1.298023978812301  0.3959736871192822 0.9167757433455479 2.450393920867024  0.3959736871192823 0.9167757433455478 2.007856029557719  1.014116663803043 1.091301493651112 2.474767832486639  -0.6397769089613947 1.885856361599427 2.410835427716981  -0.6181448518038473 1.361670697378814 2.257069987665449  -0.1396511336192156 1.472791285825262 3  -0.5135625025850592 1.416926151553228 3  0.2171273278454561 1.452231135633227 0.7206241776988639  0.5838681171949094 1.350343322085466 0  0.570825861405329 1.906772433206812 0  0.5916715253007025 1.35922078290025 1.616040581602528  1.13378064835715 1.644358907156259 1.504736713985521  0.9802837104947404 1.015623498320987 1.932926185769896  -0.07495270366908996 0.9926178030302176 2.335678285116733  -0.1633239734712831 1.457514625388545 1.969260541812861  0.1736639328492305 1.982895595541155 1.940581159545814  0.9314397286268589 1.185469520867052 0  0.5360331878793529 1.383554395144927 3  0.5013469316464557 1.927848636129754 3  0.9318504505456354 1.758771734451193 3  0.4218757816223546 1.951955945932026 1.52996483538921  0.7876799948882367 0.6089280362230858 0.7814979844598379  -0.5041753880756408 0.8589407292555569 0.7961323206085094  -0.3105322360770285 0.9457663586235725 0  -0.5469942367349582 1.360514599575593 0.5403398490353799  -0.7166731528108555 0.6954501236352435 0  0.6021968632248157 0.7932041258053155 3  0.8897527747736174 1.213786172835994 3  1.107235171763327 0.9941180878741851 3  0.1650764263213386 0.9837413911104258 0  -0.09086649248337253 1.474795591045746 0  -0.07495270366908995 0.9926178030302176 0.5652672115286212  0.5177103743712207 0.8517061283556281 1.263147926922085  0.7551518935731276 1.265137931922017 0.9499300047073244  1.394693523892019 1.430233243950673 0.5713086456695378  1.369313844397702 1.451061808629689 0  1.613598789402801 1.171261960287239 0.514680254982937  -0.9726455044974873 1.137273922375865 1.073924182966422  -0.9908812524931417 1.727219113446145 0.5764262435794172  -1.368987970497773 1.451329246427844 0.5996590211329288  -0.9953960999118099 1.724805877223749 1.056530353038198  -0.4172064841849356 0.905426576866573 1.472187054373984  -0.7796355259073547 1.24842396803037 3  -0.8550118724769616 1.799842810099524 3  0.6111579583232629 1.894537825363827 2.475685567820468  0.2740135347110018 1.973012022427457 2.410692233486728  -0.411547925748101 1.452854916264971 0  -0.7401708019871629 1.285517174895019 0  -0.06997646010378458 1.993107920242412 0.6253820182263208  -0.5260672980891882 0.8472392595660831 2.417582874741109  -0.5290376234122415 0.8456515876035146 1.875878641463117  0.8455820105048553 1.804883176334093 1.110887337947722  0.8534608015375593 0.5144276117421314 1.633723584493013  1.189751496591887 0.7953090613197495 1.205021353519885  0.1156090797132599 1.988613499498211 0  0.3464861608853855 1.965874091770562 0.9209443044426662  0.3959736871192824 0.9167757433455479 0.6759873106700307  -0.2754260761662037 1.972872899237233 1.091313709131798  -0.5709179202917516 1.906744507448919 0.6814076866582481  -0.6649112473882024 1.878231943392991 1.423079080088536  -0.1879604925798814 1.981487507310104 1.593296678584914  -0.5483980349513318 1.913575839982149 1.925367090229608  -0.07495270366909 0.9926178030302175 1.026997429688398  -1.059542960476273 1.69051866591576 2.444231285366565  1.779059765191089 0.8938942146969522 0.5856441150032816  1.28393644087122 0.6551747871608027 0.5464156047922772  1.66978440387981 1.098334036361095 0  -0.9977775476289963 1.021262425809429 0.5636198601213275  0.2441207815888347 1.48752725722372 3  0.1650764263213386 0.9837413911104258 3  -0.3105322360770285 0.9457663586235725 3  1.340692296948859 0.6985534342409534 0  -0.3468272391397835 1.965840498494632 0  -0.7909797240864027 1.834068706473131 0  0.346486160885385 1.965874091770562 0.5203040509550618  1.491269988466234 1.320320035509396 1.879478945232963  1.527626125510691 1.276019954343965 1.379747412249333  1.544377389814183 1.255608479732105 0.8268342758254814  0.7740888140987818 0.6254889379319402 2.335520588439736  1.779059765191089 0.8938942146969523 1.068024436647681  -1.064364284067658 1.06544759500601 0  -1.189714972496138 1.598454793656055 0  -1.415649600564344 1.412463744774179 1.124111047366489  0.2168012049191684 1.489941304117571 0  1.13378064835715 1.644358907156259 2.455031091878781  -1.245839619965377 1.552394485835316 3  -1.033679646116655 1.024275855209801 2.145813876738128  1.873050508530103 0.6819921490195341 0  -1.669846618080803 1.098217641777694 0.7844479410434644  -1.524758301142871 1.279514408446921 0  1.479048369690392 1.335212121076152 2.339377229549288  1.313189196928463 1.497122116450428 3  1.442193373962851 0.348801655142766 0  </DataArray>
</Points>
<Cells>
<DataArray  type="UInt32"  Name="connectivity"  format="ascii">0 1 2 3  4 5 6 7  8 9 10 11  12 13 14 15  4 16 17 18  8 19 20 21  1 22 23 24  12 13 14 25  14 26 27 28  6 29 30 31  3 32 33 34  1 12 35 36  1 13 36 37  4 5 30 38  0 39 40 41  21 32 37 42  4 16 18 43  44 45 46 47  24 48 49 50  45 51 52 53  21 32 54 55  4 56 57 58  59 60 61 62  8 19 20 63  26 28 64 65  12 13 26 25  0 40 41 66  12 15 40 67  14 26 25 65  45 46 68 69  19 29 46 70  26 71 35 72  5 6 30 31  21 32 42 73  1 23 35 36  74 34 54 75  29 52 70 76  1 12 13 67  21 42 73 77  1 2 3 32  4 43 55 78  12 14 15 27  4 17 57 58  62 79 80 81  21 29 55 77  8 81 82 83  19 20 21 84  26 85 64 65  86 87 58 88  8 10 26 83  6 55 73 77  59 44 46 89  12 15 40 90  4 5 6 30  12 35 91 92  32 33 42 73  4 18 30 38  8 10 81 83  4 29 30 78  10 26 85 25  0 24 48 49  4 43 55 75  26 71 35 92  17 87 88 93  19 21 79 82  59 46 60 62  11 19 62 81  8 11 19 81  4 87 43 75  46 80 94 95  74 23 34 54  29 31 76 96  0 39 41 49  4 6 29 55  20 21 32 54  2 32 33 42  8 21 36 82  33 34 97 98  4 87 58 99  13 36 37 82  22 24 48 100  43 54 55 75  1 23 24 34  52 70 76 94  0 12 40 66  1 12 22 35  86 87 101 99  21 42 79 82  47 69 89 102  4 18 51 78  45 46 52 68  46 60 95 103  12 13 15 67  11 59 104 62  8 19 81 82  29 31 76 105  19 59 46 62  21 29 77 79  87 75 101 99  23 32 34 54  1 12 13 36  46 69 95 103  11 19 59 62  12 27 90 91  46 70 80 94  26 27 35 92  12 27 35 92  0 24 41 106  0 1 3 34  1 2 32 37  107 85 64 65  0 1 22 24  4 55 75 99  32 54 55 75  8 20 21 36  8 9 10 108  12 15 27 90  0 24 41 49  19 62 79 81  86 87 58 99  4 56 58 99  4 7 56 99  4 5 7 56  1 2 37 67  109 86 87 88  8 20 63 72  1 13 37 67  1 32 36 37  1 23 32 36  1 23 32 34  4 30 51 78  4 18 43 78  29 70 77 96  14 26 28 65  4 5 38 57  4 17 18 38  26 27 28 92  26 28 64 92  12 26 27 35  4 6 7 55  110 111 61 89  46 60 62 80  19 29 46 84  44 45 46 53  20 21 54 84  75 101 98 99  2 3 32 33  1 22 23 35  21 37 42 82  3 34 97 112  29 30 51 105  19 46 70 80  0 1 24 34  19 21 29 79  21 42 77 79  8 10 11 81  29 70 76 96  12 40 66 67  8 20 36 72  24 41 113 106  29 30 51 78  29 51 53 78  29 30 31 105  19 21 29 84  12 14 26 25  32 34 54 75  29 53 78 84  0 2 3 106  4 16 87 43  17 57 58 88  16 114 87 93  22 23 24 100  19 79 81 82  4 6 29 30  4 87 75 99  2 32 37 42  0 2 66 106  13 26 25 83  6 7 55 73  111 89 102 103  6 29 77 96  8 26 108 72  1 3 32 34  4 17 87 58  4 16 17 87  16 17 87 93  17 87 58 88  8 36 82 83  26 85 25 65  8 10 26 108  46 60 89 103  46 69 89 103  45 46 52 53  46 68 94 95  46 60 80 95  12 14 26 27  29 70 77 79  33 34 75 98  32 33 34 75  12 27 91 92  19 29 70 79  3 33 34 97  20 23 32 54  24 49 50 113  24 41 49 113  109 114 87 93  74 23 34 100  109 87 88 93  19 62 79 80  19 70 79 80  74 43 54 75  0 22 24 48  46 68 69 95  29 46 53 84  46 47 69 89  21 36 37 82  21 32 36 37  20 21 32 36  0 1 12 66  20 23 32 36  20 35 36 72  20 23 35 36  12 22 35 91  13 36 82 83  8 19 21 82  19 63 44 84  10 26 25 83  19 20 63 84  21 32 55 73  32 33 55 73  21 55 73 77  6 29 55 77  7 33 55 98  7 33 55 73  1 2 66 67  1 12 66 67  7 55 98 99  69 89 102 103  111 61 89 103  60 61 89 103  6 29 31 96  29 52 76 105  29 51 52 105  19 59 63 44  59 104 61 62  29 51 52 53  59 60 61 89  59 110 61 89  43 54 55 78  8 9 108 72  8 9 63 72  55 75 98 99  33 55 75 98  32 33 55 75  4 5 56 57  4 17 38 57  4 18 30 51  4 7 55 99  44 46 53 84  46 52 68 94  29 46 52 53  19 46 62 80  19 44 46 84  44 46 47 89  59 104 110 61  59 46 60 89  9 11 59 104  21 29 54 84  29 54 78 84  29 54 55 78  21 29 54 55  4 29 55 78  29 46 52 70  46 52 70 94  45 46 47 69  0 41 66 106  0 1 2 66  0 1 12 22  0 12 22 91  0 12 90 91  0 12 40 90  0 39 40 90  0 39 90 91  0 39 48 91  0 39 48 49  0 22 48 91  26 35 36 72  8 26 36 72  8 26 36 83  13 26 36 83  12 13 26 36  12 26 35 36  3 24 34 112  3 24 106 112  24 113 106 112  0 3 24 106  0 3 24 34  23 24 34 100  19 59 44 46  8 19 59 63  8 11 19 59  8 9 11 59  8 9 59 63  </DataArray>
<DataArray  type="UInt32"  Name="offsets"  format="ascii">4 8 12 16 20 24 28 32 36 40 44 48 52 56 60 64 68 72 76 80 84 88 92 96 100 104 108 112 116 120 124 128 132 136 140 144 148 152 156 160 164 168 172 176 180 184 188 192 196 200 204 208 212 216 220 224 228 232 236 240 244 248 252 256 260 264 268 272 276 280 284 288 292 296 300 304 308 312 316 320 324 328 332 336 340 344 348 352 356 360 364 368 372 376 380 384 388 392 396 400 404 408 412 416 420 424 428 432 436 440 444 448 452 456 460 464 468 472 476 480 484 488 492 496 500 504 508 512 516 520 524 528 532 536 540 544 548 552 556 560 564 568 572 576 580 584 588 592 596 600 604 608 612 616 620 624 628 632 636 640 644 648 652 656 660 664 668 672 676 680 684 688 692 696 700 704 708 712 716 720 724 728 732 736 740 744 748 752 756 760 764 768 772 776 780 784 788 792 796 800 804 808 812 816 820 824 828 832 836 840 844 848 852 856 860 864 868 872 876 880 884 888 892 896 900 904 908 912 916 920 924 928 932 936 940 944 948 952 956 960 964 968 972 976 980 984 988 992 996 1000 1004 1008 1012 1016 1020 1024 1028 1032 1036 1040 1044 1048 1052 1056 1060 1064 1068 1072 1076 1080 1084 1088 1092 1096 1100 1104 1108 1112 1116 1120 1124 1128 1132 1136 1140 1144 1148 1152 1156 1160 1164 1168 1172 1176 1180 1184 1188 1192 1196 1200 1204 1208 1212 </DataArray>
<DataArray  type="UInt8"  Name="types"  format="ascii">10 10 10 10 10 10 10 10 10 10 10 10 10 10 10 10 10 10 10 10 10 10 10 10 10 10 10 10 10 10 10 10 10 10 10 10 10 10 10 10 10 10 10 10 10 10 10 10 10 10 10 10 10 10 10 10 10 10 10 10 10 10 10 10 10 10 10 10 10 10 10 10 10 10 10 10 10 10 10 10 10 10 10 10 10 10 10 10 10 10 10 10 10 10 10 10 10 10 10 10 10 10 10 10 10 10 10 10 10 10 10 10 10 10 10 10 10 10 10 10 10 10 10 10 10 10 10 10 10 10 10 10 10 10 10 10 10 10 10 10 10 10 10 10 10 10 10 10 10 10 10 10 10 10 10 10 10 10 10 10 10 10 10 10 10 10 10 10 10 10 10 10 10 10 10 10 10 10 10 10 10 10 10 10 10 10 10 10 10 10 10 10 10 10 10 10 10 10 10 10 10 10 10 10 10 10 10 10 10 10 10 10 10 10 10 10 10 10 10 10 10 10 10 10 10 10 10 10 10 10 10 10 10 10 10 10 10 10 10 10 10 10 10 10 10 10 10 10 10 10 10 10 10 10 10 10 10 10 10 10 10 10 10 10 10 10 10 10 10 10 10 10 10 10 10 10 10 10 10 10 10 10 10 10 10 10 10 10 10 10 10 10 10 10 10 10 10 10 10 10 10 10 10 </DataArray>
</Cells>
<PointData  Vectors="f_18"> 
<DataArray  type="Float64"  Name="f_18"  NumberOfComponents="3" format="ascii">3.1372357967930726e-05 7.4728552195155588e-05 -1.8559313781504465e-05  2.0210347077048703e-05 8.2935697312990883e-05 -1.2529696377473040e-05  2.5658568874630166e-05 6.7236052251141759e-05 -1.0746840075680876e-05  4.1813135509281294e-05 5.8476760232900280e-05 -8.7333647991094595e-06  5.8179962736070701e-05 7.0851544521574792e-05 1.7042011963287654e-05  3.5764135388503982e-05 6.2767966460894879e-05 2.6512593967331255e-05  2.8367217619403110e-05 6.6959888830255010e-05 1.5607707506407062e-05  4.1623212085765722e-05 5.7732262770939572e-05 1.2497808089804511e-05  -3.7568531388752198e-05 7.3576193048228731e-05 -2.8767698006051634e-06  -6.2204332265221849e-05 5.6362733498701915e-05 -1.0183062614517506e-06  -3.8585850805240554e-05 6.0501006696190825e-05 -7.6527345124246094e-06  -4.2232732919584145e-05 5.8160843168495316e-05 4.7933061833016096e-07  9.2734395876326783e-06 8.0724993946338668e-05 -1.8117480112703476e-05  -7.2734359876714573e-06 7.1517678030516389e-05 -1.2549944950241578e-05  -1.5813271877998568e-05 6.9799917239055529e-05 -2.4242867654459567e-05  1.0389926293681849e-06 7.1978893190675943e-05 -2.5233792156181441e-05  1.0294782217380193e-04 4.8170985436985215e-05 2.5242297676407205e-05  6.3872967027105650e-05 5.5048745600023344e-05 2.5893287216653822e-05  6.7699804905172953e-05 9.0811273858627529e-05 2.7463509072744938e-05  -3.0235257998830400e-05 7.9615704143153361e-05 7.3169569672044677e-06  -3.2866870620149430e-06 1.1374451828208625e-04 -1.7906295952481071e-06  2.9777651471756094e-06 8.4131753439470534e-05 4.3498111578440768e-06  4.3197435443998235e-05 1.0573547717236043e-04 -1.7170259265198113e-05  4.4652311771267418e-05 1.0478911942449489e-04 -8.3570304463108555e-06  5.7285447727759399e-05 6.2887362597010342e-05 -1.6846142389058000e-05  -2.3593108242629672e-05 6.7385154816772377e-05 -1.4975202117991600e-05  -3.5337905186708314e-05 7.7118699883357272e-05 -1.2348958095561551e-05  -7.4408390489421109e-06 8.5034203074153575e-05 -2.4839256605824995e-05  -2.8306512457451711e-05 7.8239839007013910e-05 -2.5533804738935650e-05  1.2129268611663035e-05 8.5788081704339880e-05 1.3782470633053592e-05  3.2974368179727577e-05 7.8708827838638181e-05 2.5968220227644382e-05  1.9435201152851733e-05 6.9650149395486039e-05 2.6310520039846764e-05  3.3551484957727524e-05 7.7962450527326840e-05 -1.6335297103293426e-06  4.1111091299641146e-05 5.9542166629280307e-05 3.2514881222110816e-07  6.1002143776655163e-05 6.4458681352012786e-05 -7.1537667766600307e-06  -7.7975504049892453e-06 1.1319672302931668e-04 -1.4172468448636141e-05  -9.8069933712906247e-06 8.5277273004431768e-05 -7.5574784889799493e-06  5.2833240041047900e-06 7.2498565654783629e-05 -6.9357014110227518e-06  5.0686143049104899e-05 6.6627710451767807e-05 2.6370779518632000e-05  3.0481409867684865e-05 7.9685488523677152e-05 -2.4690792116860845e-05  1.8033223145714338e-05 6.9919187011341274e-05 -2.5089273499271905e-05  3.3834072160226120e-05 6.3990188147787052e-05 -2.5410972010512558e-05  1.4761002488457379e-05 7.1491094212471561e-05 1.4508262309463389e-07  8.8140741085662963e-05 6.9030374093434095e-05 1.2993203538698061e-05  -5.6842308262343097e-05 9.7282708242062282e-05 1.3670908490301298e-05  -3.6822882557706090e-05 1.0770257221098860e-04 2.7493000658310611e-05  -3.2831345461306871e-05 7.9815563333256542e-05 1.7681653611727949e-05  -8.3272111499243688e-05 7.9202550348874564e-05 2.5521686099789814e-05  6.7234505137188738e-05 9.0479142015571339e-05 -2.6457426046526500e-05  4.9535867856898290e-05 6.7829890951604367e-05 -2.5407380427485567e-05  6.2664802062064451e-05 5.6926852915169457e-05 -2.5097743554042902e-05  1.8044123802696053e-05 1.1425318521701552e-04 2.6396586313051687e-05  -6.1629324882254370e-06 8.6229861493469976e-05 2.6883518202775808e-05  -8.4187359923707705e-06 1.1329759285185762e-04 1.6484154898855407e-05  5.6361970276630394e-05 9.8759466787301934e-05 4.4985301524697639e-06  4.2389800231330422e-05 7.4053411224803359e-05 1.0370625682961331e-05  4.8779502914193629e-05 5.1286092007432390e-05 1.6457458414838270e-05  4.8286255025162681e-05 5.2764424307306343e-05 2.6533227410582222e-05  5.7095489289299176e-05 4.3051547822302792e-05 1.7088483403535347e-05  -5.5003164637891057e-05 6.4469388620075338e-05 8.5175164557916000e-06  -3.6406444185911716e-05 6.2560888902882627e-05 1.7136532512971578e-05  -4.9564471104507633e-05 5.2329717794116591e-05 1.6608858981653087e-05  -3.6247093230334470e-05 6.2424562350513389e-05 8.4575343660935042e-06  -4.6921802530393038e-05 1.0353860819202918e-04 1.1072107695825140e-06  -4.5335414296279492e-05 7.2143362527592287e-05 -2.5331804216014267e-05  -3.0685680945108367e-05 6.4662121408220037e-05 -2.5539037013521412e-05  2.1388376071707876e-05 6.8977583590423057e-05 -1.6555125662038524e-05  9.5975148104904763e-06 7.1397449965206379e-05 -1.5239998386180113e-05  -2.3488600536096457e-05 8.1162398089375395e-05 2.6931497246511578e-05  -4.2876346486074885e-05 7.4193203509764243e-05 2.6254545120409471e-05  -3.3035008100035406e-06 7.2484388832059208e-05 1.5668537769722199e-05  -5.9106503708936865e-05 9.5497010867858978e-05 -1.5608178709575726e-05  -5.9784251617019248e-05 9.6372274493418777e-05 -6.2487873065808390e-06  3.0564857453270198e-05 6.5647341044499258e-05 7.2688241301856898e-06  9.4463531226355826e-05 5.9159891869358023e-05 -2.0776662439164724e-06  7.1931859803985292e-05 4.8893316216595546e-05 5.4311000388096812e-06  3.3867768755919875e-06 7.2490792442604624e-05 2.6818605814971728e-05  1.1666282217859433e-05 7.1385131026264323e-05 1.0544130896241070e-05  4.3721562628306551e-05 1.0404803319703689e-04 1.5103839050145802e-05  -1.0281919874130718e-05 7.1779369984217544e-05 7.8969074232525328e-06  -2.1222908047951777e-05 6.8889591128161568e-05 1.5344948485512988e-05  -2.4572878010150565e-05 6.7457579922835517e-05 2.1496599696324197e-06  -7.4662277339513640e-06 7.2001393243652367e-05 -4.9964087381289295e-07  -2.0481443935314192e-05 6.9292227568283689e-05 -6.4222668992882570e-06  -6.4356900267137117e-06 1.1200180149093516e-04 9.4249568201485281e-06  -3.8498050621860270e-05 6.0558357919294224e-05 -1.5002905703178618e-05  6.2419997668663110e-05 3.2574101535386527e-05 1.6108356966068316e-05  7.6609876674756658e-05 3.9303621919052329e-05 1.6015452431695652e-05  5.9169276356138876e-05 3.9521904032618727e-05 2.6286434825409625e-05  -6.1546802232416046e-05 6.2960084770909903e-05 1.6622183378047527e-05  1.3314973868866522e-05 8.3060408845113086e-05 -2.5538746593080532e-05  1.9119493521360783e-05 1.1258006903597089e-04 -2.5699393746554945e-05  -3.3720534962656620e-05 1.0704304409386746e-04 -2.5562163313586789e-05  7.2637584579874541e-05 3.9484968985379961e-05 2.6440349657284630e-05  -1.3717727544178531e-05 7.1433958495621935e-05 2.6808525976917936e-05  -2.9404087593842280e-05 6.6569640406835423e-05 2.7549108941288563e-05  1.1633323818253916e-05 7.1050505162909637e-05 1.7502156897026637e-05  5.2882750707903074e-05 4.7953745398229014e-05 -6.3402391671784743e-06  5.3721026406758273e-05 4.5993076299142702e-05 2.5994802960890121e-06  5.5327478817307513e-05 4.5385988163997799e-05 1.1904967899464292e-05  8.6435427221756136e-05 7.2060225559713076e-05 -1.4806466725838851e-05  6.3378638022515979e-05 3.3034654316832293e-05 7.5442457572297996e-06  -5.9613829085167375e-05 5.9807141547074129e-05 2.7095737522096211e-05  -4.3539131189872989e-05 5.8332639781266298e-05 2.6723501314014008e-05  -5.1091308910623368e-05 5.0828960303347233e-05 7.8031352966219009e-06  1.1342204525143543e-05 8.3384799474306526e-05 2.6672354174485822e-05  4.0546414348691216e-05 5.9266861446787118e-05 -1.6002659760763763e-05  -4.4732534198960083e-05 5.5224196085029228e-05 -2.4503947263971783e-05  -6.1506501019261035e-05 6.0758059234701871e-05 -1.0604265786013243e-05  6.5940219755162441e-05 2.5823757301256928e-05 2.5479780114456077e-05  -6.0234402291959524e-05 4.0273908452699302e-05 1.3277554657910572e-05  -5.5158693353390899e-05 4.7305034161356214e-05 2.6608323714715325e-05  5.2361207706622317e-05 4.8509483467256429e-05 -1.4316022833842064e-05  4.7070617899111355e-05 5.3774508779570737e-05 -2.5839181535582629e-05  8.1636833899725126e-05 2.1232758037672400e-05 2.5504891377253420e-05  </DataArray> 
</PointData> 
</Piece>
</UnstructuredGrid>
</VTKFile>