<?xml version="1.0"?>
<VTKFile type="UnstructuredGrid"  version="0.1"  >
<UnstructuredGrid>
<Piece  NumberOfPoints="552" NumberOfCells="2230">
<Points>
<DataArray  type="Float64"  NumberOfComponents="3"  format="ascii">1.497553933621271 -0.9299888952757689 1.051401708821963  1.723509454997661 -0.9978215353029387 0.8599387015306912  1.603175712833004 -0.7179780603154297 1.166971448621335  1.738670460969055 -0.9694572881401065 1.232012655497408  1.269947058333062 0.3626388851459498 2.684274026195443  1.4767278390955 0.2359207298638786 3  1.484813864121234 0.5896749138753508 3  1.247559817212835 0.2481550766895392 3  1.166099747272017 0.6275808168611772 1.569671802422877  1.246343196849299 0.2871914511843041 1.463260603318937  0.9081186916187176 0.4121698917342359 1.495578929490344  1.115014914449755 0.664178382377357 1.231298039236009  1.266922126336883 -0.8552825601474245 0.9890793869444463  1.603499978712499 -0.7599911991864079 0.858510318126826  1.582421191264103 -0.5272061569022808 0.9863163909996424  1.339507718413847 -0.6999225836316151 1.171427264265846  1.331631675302982 1.075644226590585 0.7427025225229377  1.491416493164115 1.320141519018512 0.7572846653028551  1.266603435826646 1.134828903839546 1.021613359460302  1.656495002398096 1.1189927735181 0.8921219209227598  0.8415248583882122 0.8186074859553321 2.762647266441338  1.01017680706372 0.7830812049227713 3  0.8520051501267096 0.5171509439852667 3  1.126888954052144 0.6681851394435211 2.695702277715691  0.9530377358237719 0.9485576382829037 2.633905012019921  0.785242760231733 0.6118978152447206 2.59205970188895  0.9142417789429336 0.827459334637151 2.360146602251166  1.410318934244185 -0.9111586153381305 0  1.465907151919879 -0.9984730424788163 0.2172742162374254  1.733506800037224 -0.9791178182666612 0  1.479909993475237 -0.7682026425289157 0.2858410267811749  1.352469951392823 1.157329253277371 1.459232049490172  1.601614723428512 1.185864586927789 1.531841789053977  1.394496726906461 1.019249133009212 1.666860244828857  1.500640819621185 0.9293140676957232 1.456133308611717  1.122229454200134 1.225737995178475 2.534786329470682  1.165637108013253 0.7851941080111963 2.453728939295619  1.152002961473718 0.9976054101454552 2.28508978773055  1.641183972767365 -0.08086354815262135 1.91319189243527  1.322657908994097 0.07314712133113015 1.84571429568965  1.421160066354013 0.1648031196956253 1.618618604393672  1.474883172881394 -0.09108440626897743 1.582406010911425  1.139053451992402 0.580641381212873 0.5104985438510611  0.79840087828554 0.5958646020060542 0.6027225483598206  0.914171071328564 0.4008466857189293 0.3058452473438621  0.9066528007298537 0.4149123806933417 0.7553452832223546  1.661433677745688 0.4567965262230854 1.528680796761813  1.413258630617723 0.4957320168241518 1.296573873598289  1.362619788599672 0.3978435692102224 1.734130052315586  1.216567604785609 0.1658433812605938 2.054253110628363  0.9494366041924407 0.2984330579181564 2.125369844989875  0.9991865259473796 -0.008259340662152212 2.287968233049495  1.240986756051685 0.3126806997713886 2.286683081109373  1.501145165591527 0.715944735626173 1.591166637112397  1.631081950642508 0.6600294884663581 1.382165194515427  1.695169390034988 -0.07534086820466786 0.2893799747718582  1.549467691542403 -0.4491521444899907 0.3730949252242547  1.726406769544368 -0.3263466495875754 0.2261722903773296  1.714237189425319 -0.2101819387451271 0.5200727776800095  0.7852427602317333 0.6118978152447203 2.762235612167714  0.7117128119686211 0.7014943164396241 3  0.9777758768151188 -1.348216993986192 0.9918469369685869  1.095144249706515 -0.9991198228822549 0.877457965196244  1.281164483440818 -1.100695283167518 1.179269542298964  1.321427586485184 -1.181768205949974 0.8641150343349495  1.323612625207123 1.193287094455838 2.176021006508231  1.167928895928782 1.173882084854657 1.94145071994378  1.031766936443343 1.348283730697958 2.231342139160024  1.787272571795037 -0.8785291342494904 0.2673821819830821  1.841038343552851 -0.7779404502323188 0  1.684285838260382 -0.5576451795149887 0.2134436497599698  1.942868251577821 0.4518338950460338 0.3134538353217151  1.605332365585403 0.2285011191471091 0.3448026455806886  1.977641053560121 0.2270141928915059 0.2557860430762646  1.977641053560121 0.2270141928915059 0.4492520385318801  1.998838593134564 0.01179196179410744 0.5534736031975531  1.988386919539986 0.117909584635533 0.7692837751537056  1.708697052989893 -0.1278824122201236 0.7950025566764369  1.977641053560123 -0.2270141928914856 0.5658979254802281  1.748002867292792 -0.2613956547999485 2.792669189507735  1.895352963259474 -0.6084708088019486 2.660602090829001  1.983929507246339 -0.163166451140751 2.703850436932474  1.928461762032969 -0.499325726417098 3  0.7734943668628017 0.6262132739847579 1.290516220347056  0.6155714332069855 0.782227899884495 1.116995164022528  0.8135740139693522 0.9214686948614513 1.281296001132774  0.9585684782132136 0.8445876564570292 1.040074403278019  1.347042302807274 -0.9006190768097603 2.624250684732806  1.710040840164151 -1.02301954134551 2.504937398631578  1.495306936077182 -0.9680374669233975 2.78733531921882  1.581538098783715 -1.210328024839381 2.672080046702937  1.660059562757285 0.2119384033264062 1.720507002659895  1.968557267095729 0.3192434246291332 1.888359676380478  1.899814479886063 0.5937631595422528 1.793371101941705  1.608182956164474 0.543976366073243 1.804733138884222  1.022899481669183 -0.8720254180038959 1.208965058497697  0.7565147063597757 -0.6469030501709819 1.110841064724566  0.8759584548557765 -0.4723374628096901 1.037838019869259  1.124942306796477 -0.6639412424209992 0.9123567056972074  1.67895408362749 0.4370489797473934 1.156838159739098  1.909642903303957 0.5613631896430733 1.335302611914956  1.188179795098442 0.1808005360122215 0.1982206534656708  1.244869039909235 0.2476198478059887 0  0.9470633557265229 0.3062566096303283 0  1.278859660179556 0.3268370880171415 0.3302070387997395  1.42305500163819 -0.235261026525197 1.33986711601181  1.23143457712679 -0.087024358618913 1.44822462272553  1.252588462798452 -0.3037578293719645 1.673769628224802  1.862287014276638 -0.717474634357655 1.478380477626664  1.951729332652096 -0.4226228254905615 1.684165591503963  1.635464373222559 -0.6340084936718524 1.630114852910802  1.884636203808672 -0.6437992301427082 1.808589540450422  1.889322757365143 -0.6283497335444969 0.5738378286160368  1.942868251577826 -0.4518338950460145 0.3534671174188525  1.87676409667126 -0.6697500895481858 0.2897313307860865  1.627267295473881 -0.7319606141220405 2.76804050033594  1.86224416448598 -0.7176158911867992 3  1.596314120694009 7.271960811294775e-15 0  1.770872021915538 0.1321725600421538 0.2156708121571308  1.98882052678006 0.1135070964457581 0  1.727038821644253 0.2023320273856744 0  1.521306094869681 -0.679876513307954 3  1.647445638758131 -0.5285306936744546 3  1.438206875785329 0.7197698650596768 0.3842777712044098  1.584858964729974 0.7447906552294696 0.1874708327260145  1.36749920480456 1.005350704390361 0.2928801506650885  1.679852743081404 1.079497498589653 0.3246036746331542  1.374537895574029 -0.565527493733493 0.7062807409973615  1.406003023520686 -0.9066631863480832 0.7562857402274894  1.036590094932914 -0.7077778032396923 0.5744980369504201  1.143117929213057 -1.332984790918304 1.291712047176803  1.211759553235815 -1.580363273790293 1.573400789366199  1.376292578884149 -1.445334509249837 1.428334545287665  1.179683632199664 -1.606687301880956 1.194714787904707  1.727831496223673 0.3053975023895797 2.753589765076476  1.969983309772718 0.3047645703496642 2.600364578287666  1.957431960959771 0.4038237793303748 3  1.982532073093845 0.1773548381964919 3  1.434201923315457 0.6898089408598096 0  1.733506800037214 0.9791178182666787 0  1.429586372154414 0.9231922039811385 0  1.337134696909384 -1.009751336514745 3  1.337727742492635 -1.134018345326675 2.760070239660308  1.509181542498043 -1.298494743772877 3  1.090422153579626 -1.323064863073947 3  0.8912759720074899 -0.4436804038235074 2.342440520988019  0.8726087114059971 -0.478604392017481 2.561785648061043  1.074387660584865 -0.7413601581968685 2.512562118945251  1.282379866447789 -0.4712667190396849 2.628283478693501  1.991569571675232 0.0855955752218884 1.234881321711428  1.999999999999999 1.056237892248978e-14 1.498246855335964  1.641919140899937 0.1895781493796465 1.370667494351562  1.666086308269792 -0.1297951300767494 1.32416441731503  1.876764096671261 -0.669750089548184 0.8592438288234936  1.866053332419584 -0.7050587473660511 1.180732539244401  1.777974709034347 0.2014836567612767 2.194231021100105  1.751812448427155 0.1452212327923848 1.947848860599114  1.68869356667868 -0.03995619810865415 2.231368422887011  1.501918822463875 0.1976329650058682 2.113752684885754  1.160443483716708 0.9475900092150403 1.167203002723368  1.252456121015855 0.9304429933793548 1.409616570295079  1.543404142441013 0.7766799381092869 1.176259972315923  1.364035053494059 -0.6332246414940789 1.651635798090307  1.578345588653854 -0.4484070890946016 1.369656974329539  1.602853999223423 -0.3846511175337285 1.734494465800862  1.265432224172826 -1.536315251105162 2.634595007572392  1.184600732689512 -1.317868085482662 2.779272303333936  0.9801666994139839 0.1971295102541218 1.864687898271195  0.9961930054511243 -0.03865306431943142 1.825785329347914  1.714133850753991 -0.009526106923234176 1.062168169206496  1.670898484193412 0.1858410549600799 0.6740034087550382  1.543936495769325 0.2175006024263709 0.9921183876926787  1.710145243741435 0.3606197036126997 0.8582413234281099  1.808842807264607 -0.838174062074613 0.7078804865279258  1.077168197567472 1.22108614020189 0.7886821271081074  0.9558336858219978 1.133613571114183 1.140304209729167  1.112611018414472 0.9659842198834007 0.8346122094258748  1.475357266467591 -0.0890608896979575 0.5145105409779778  1.251896599718518 0.1182866894121717 0.5544979304461281  1.549911663318429 -0.6784416973751866 2.525352283070309  1.73690136321656
[...]
<PointData  Vectors="f_18"> 
<DataArray  type="Float64"  Name="f_18"  NumberOfComponents="3" format="ascii">3.7097822037244578e-02 -2.3121390704185143e-02 4.7452981685249555e-03  3.4572204724089492e-02 -2.0019927622613579e-02 5.8725781541970326e-03  3.9975507524091493e-02 -1.8243151690446779e-02 3.6220870477723685e-03  3.6091175875863607e-02 -1.9768026369582029e-02 2.3304778703973029e-03  4.5720031351556868e-02 1.3746815170667285e-02 -1.6845857980583013e-02  3.9781153920163480e-02 6.5689989879204446e-03 -1.7832037424601092e-02  3.6323821790524138e-02 1.4904071621369025e-02 -1.7008860842297538e-02  4.3850581169798571e-02 9.0951210088415467e-03 -2.1438617314779376e-02  4.5666916042591446e-02 2.5327647974846986e-02 -1.2608046352941928e-03  5.1944115245501202e-02 1.2263027819845502e-02 5.7658110230480780e-04  5.5902746325691414e-02 2.6471235770146276e-02 -3.4475730340117137e-05  4.4893654656841947e-02 2.7526819763366041e-02 4.1014857882303683e-03  3.9096557578843720e-02 -2.6643432381709284e-02 6.5456870767772605e-03  3.8541901521089474e-02 -1.8245105541922078e-02 6.6194397419585757e-03  4.2261844548981839e-02 -1.4101606311979497e-02 5.8056648070709026e-03  4.2112325782798006e-02 -2.2064619387163052e-02 4.1867036149693211e-03  3.3440325818147223e-02 2.8004560984304774e-02 8.3131535451016307e-03  2.9674622189698418e-02 2.7129031703236675e-02 6.6645865280254230e-03  3.2762941057427386e-02 3.0502872742379148e-02 5.2694599429829883e-03  3.3299635718330250e-02 2.3110341553075446e-02 5.4381496781718466e-03  3.5961786997852879e-02 3.6207325403852263e-02 -1.9987386737435508e-02  3.4961514788080787e-02 2.7956620015157432e-02 -2.1404522608703357e-02  4.4534476780970909e-02 2.7934670487520883e-02 -2.7236602281822581e-02  4.0950889245041248e-02 2.5044858174025363e-02 -1.7159872422097103e-02  3.3708668930296073e-02 3.4456105110099680e-02 -1.5665599569376111e-02  4.5445506751945183e-02 3.6165209533682137e-02 -2.0475325581094220e-02  3.8827671833179214e-02 3.6100431324733458e-02 -1.3407318651745843e-02  3.1365221870834598e-02 -2.0512178672905130e-02 1.5793951019954646e-02  3.1673429270534882e-02 -2.1816928758003312e-02 1.3031509973258488e-02  2.9563136709217175e-02 -1.6870337907723947e-02 1.3064817095268045e-02  3.5827796941626591e-02 -1.8766041210861516e-02 1.3115337635655861e-02  3.3245655815550154e-02 2.9357186736405701e-02 3.3388521099063763e-04  3.3069134377932269e-02 2.5366085321704899e-02 -3.1955938732462216e-04  3.5859065445816525e-02 2.7066552813080347e-02 -1.8950573619674674e-03  3.7285236103309902e-02 2.4073176978383588e-02 4.8229683277418881e-04  2.8724001079931796e-02 3.2163602688146151e-02 -1.1579456821304106e-02  3.9428170583654103e-02 2.7381934660917678e-02 -1.2948795254423348e-02  3.4793554689943225e-02 3.1258306336383525e-02 -9.7260613565749946e-03  4.5625127646376468e-02 -1.4405489014652022e-03 -5.1412548362790083e-03  5.1439691919078379e-02 3.1644839743400397e-03 -5.2939043697905058e-03  4.9436319084569490e-02 5.9962833723750343e-03 -1.6277941006095577e-03  4.8517709802304375e-02 -2.6574879023681811e-03 -1.4563939000373945e-03  4.4519646843212642e-02 2.3183030922026632e-02 1.4612635450209917e-02  4.6955001131884798e-02 3.6706014569507076e-02 1.6588872766160889e-02  5.1367939113426762e-02 2.2905437909308046e-02 2.2401222358555919e-02  5.4824025303014126e-02 2.5599707325189829e-02 1.3596652975126296e-02  4.2841074030469467e-02 1.2315519037399920e-02 -5.5778650674850850e-04  4.5296219367071754e-02 1.6436457789199860e-02 2.4009166724897782e-03  4.7729156849577632e-02 1.4428425862574099e-02 -3.4718557473745891e-03  5.3183172703390846e-02 7.7587050143239043e-03 -8.7767168741996714e-03  5.7803305975352944e-02 1.9214562236153730e-02 -1.1990421785437475e-02  5.9930810473330549e-02 -1.8932502618026876e-04 -1.4855601714733524e-02  4.9599743914838415e-02 1.3020103272922882e-02 -1.1935547374094703e-02  4.1074425570212250e-02 2.0410748879574909e-02 -1.3741167263425745e-03  4.0806841287621472e-02 1.7201188893556568e-02 9.3759380340045133e-04  4.0113526256527345e-02 -1.6544005235277044e-03 1.2912246523512146e-02  4.0673010964603025e-02 -1.1765427622338577e-02 1.2845675805356786e-02  3.7816740070939422e-02 -6.8814900682279655e-03 1.3087670867262813e-02  4.1239880588741042e-02 -4.5462593103112589e-03 1.0473767766369229e-02  4.4119184466074428e-02 3.4926096964660099e-02 -2.3401385972907741e-02  3.6834003787951625e-02 3.7414462446088204e-02 -2.7366243870260959e-02  2.6261623731697582e-02 -3.6704961743966855e-02 5.9338380257258454e-03  3.5006159758440604e-02 -3.2217095132063840e-02 8.1908086108090535e-03  3.3751030704263822e-02 -2.9281774356047733e-02 3.4921905423043595e-03  3.1629744519698556e-02 -2.8633071756901749e-02 6.7835612367469975e-03  3.1630940924886060e-02 2.9269682933281922e-02 -7.3926173645489134e-03  3.1893903760442488e-02 3.2771429772804395e-02 -5.2269516713898349e-03  2.6311361598608137e-02 3.5512576190477145e-02 -8.3406905576347973e-03  3.2506290709825858e-02 -1.6097921061166573e-02 1.0870205072140577e-02  3.1193709486740842e-02 -1.3384148642515324e-02 1.2950627337183688e-02  3.6447839114414710e-02 -1.1963221964039072e-02 1.2879153384705841e-02  3.5693702962511488e-02 8.7137042764023395e-03 1.0399337492519820e-02  4.1218208970526839e-02 6.3084646061515575e-03 1.2952843439987378e-02  3.5861761499000978e-02 4.6226035325385318e-03 1.0884876649539906e-02  3.7438096912754786e-02 4.8417092560946954e-03 9.1349497158657016e-03  3.8472984533281643e-02 5.2884258430117457e-04 8.4937912351800999e-03  3.9646900260318453e-02 2.7364689358850922e-03 6.6159554911385723e-03  4.2859502799319896e-02 -3.0247988496264751e-03 7.7937273420118462e-03  3.8135341457508444e-02 -3.8946410181524400e-03 8.4537418450875371e-03  3.8297514734090987e-02 -5.3907608388513786e-03 -1.3369507462994975e-02  3.5448570442095470e-02 -1.1169059937108433e-02 -1.0534036950817081e-02  3.6717372907200944e-02 -2.4908412502661795e-03 -1.0936461624926322e-02  3.3329706476321885e-02 -8.4279776412318468e-03 -1.3502648721261992e-02  4.8063267548173208e-02 3.9703434706368411e-02 3.7095205268101068e-03  3.7542287051681951e-02 4.9754305661145200e-02 7.1879214935508286e-03  3.5756809395132892e-02 4.1751390038148324e-02 3.3478991916072566e-03  3.9286096712556534e-02 3.6130084029820146e-02 6.9194389824452137e-03  3.5237155449102373e-02 -2.3517238811365623e-02 -1.3128635056107028e-02  3.3054079907982287e-02 -1.9557224213734646e-02 -9.2021893389526207e-03  3.2198577142011235e-02 -2.0861882275029452e-02 -1.3272847814817787e-02  2.9580532784430777e-02 -2.2673859239670621e-02 -1.0569718318108235e-02  4.4715271336794683e-02 6.2142731248927691e-03 -2.7259063344203531e-03  4.0396121657049942e-02 6.9283995336165945e-03 -4.1998151942189725e-03  3.9055352062334917e-02 1.2843430085623581e-02 -3.0456962711494897e-03  4.2378448112165297e-02 1.4781235124578559e-02 -3.8668191082806432e-03  3.9140958279946909e-02 -3.3371358922466933e-02 4.2254239435910055e-03  4.7219751964987892e-02 -4.0652746020257757e-02 7.3398138561724122e-03  5.3679114141357176e-02 -2.9364976858499692e-02 8.6196715340965610e-03  4.3845344422386516e-02 -2.6384348666514131e-02 9.0359802173365453e-03  4.2557084106716131e-02 1.1962504415288991e-02 3.5870420062770053e-03  3.9374328388077591e-02 1.2052433377086325e-02 1.4254133663312821e-03  4.8456270138261814e-02 7.6421851303030289e-03 2.0036253769482086e-02  4.3593980867887572e-02 8.9846157595922065e-03 2.1353664699642536e-02  4.9018468063682083e-02 1.6592078480039591e-02 2.7525564984852161e-02  4.5732468010702194e-02 1.2106218042400163e-02 1.6410256106627871e-02  4.8872883200292344e-02 -7.4632525206041762e-03 1.9373188871977226e-03  5.4120790385073017e-02 -3.6432355522520036e-03 1.1456847218673605e-03  5.1518740426971230e-02 -1.2316866453114318e-02 -2.8355367049357275e-03  3.8492220453585330e-02 -1.4766442622654233e-02 1.1368812432566456e-04  4.0094030892675735e-02 -8.2818203736712125e-03 -2.0756018028901392e-03  4.1301271221355060e-02 -1.6124913968704514e-02 -1.5820718409884848e-03  3.9210631716175656e-02 -1.3050173742491960e-02 -3.0555283305145823e-03  3.6587672406412600e-02 -1.2072306911922964e-02 8.2710367596984507e-03  3.5943070490495672e-02 -8.3994423227776518e-03 1.0061789582563992e-02  3.4342969018265890e-02 -1.2210767611856146e-02 1.0607913954433317e-02  3.4941661884567529e-02 -1.5632125589409820e-02 -1.3179909903141902e-02  3.2051924164177799e-02 -1.2268682383601539e-02 -1.3576330827341471e-02  3.8571571363830520e-02 1.4076882720556565e-04 1.6726482813836898e-02  3.8092138393112603e-02 3.1168435246350383e-03 1.2981518326724168e-02  3.4025685885469871e-02 2.3029124151105118e-03 1.3153343000255570e-02  3.6385397407188692e-02 4.7804376285059420e-03 1.5216244554504413e-02  3.4448224774688216e-02 -1.5295421647071086e-02 -1.6144605288184219e-02  3.5261193307561833e-02 -1.1192482128016984e-02 -1.5696586279579282e-02  3.7435074278786076e-02 1.9596528510916724e-02 1.2581636844286275e-02  3.4379028614515958e-02 1.6893247498258754e-02 1.3350048129584877e-02  3.2052831507233225e-02 2.4786739279277596e-02 1.2806480917728904e-02  3.0652061591739985e-02 2.0655224080945896e-02 1.0142603285617698e-02  4.3233725305413723e-02 -1.7919491472563026e-02 1.0150690498638044e-02  3.6611623293641878e-02 -2.4091962765713480e-02 8.3322102367066019e-03  4.2131462780744866e-02 -2.9103629539951503e-02 1.3962979126152825e-02  2.8207438686886903e-02 -3.3485589015242484e-02 2.2437804342102683e-03  2.5352646149727071e-02 -3.3103414083774318e-02 -8.1575192886275990e-04  2.8406795855434919e-02 -3.0162386764180097e-02 3.9545191373339478e-04  2.4269250996155806e-02 -3.3314667666260782e-02 2.5823737175181276e-03  3.8563138641544606e-02 7.4654909830777424e-03 -1.3253843010847938e-02  3.7517302003486852e-02 6.2418403479004986e-03 -1.0016944132055682e-02  3.3680675140007735e-02 7.4425743009584842e-03 -1.3361414442460640e-02  3.4101688678519794e-02 3.6444276866121764e-03 -1.3264564784869150e-02  3.4505952984128521e-02 1.7331697226097936e-02 1.6528847372329607e-02  2.9344322538891490e-02 1.7380213844769479e-02 1.2868480979605045e-02  3.0640591908653814e-02 2.1090670100491662e-02 1.5530998224177368e-02  2.9951610637410728e-02 -2.2941244679630435e-02 -1.6022410461153689e-02  2.9794254671614142e-02 -2.5414684595724345e-02 -1.3213145147289381e-02  2.6151757573019845e-02 -2.2567515853663539e-02 -1.3325058552493120e-02  2.3501266025707502e-02 -2.8830137137670367e-02 -1.5947818329443295e-02  5.3264441384285148e-02 -2.6384195077393043e-02 -1.6000954504836691e-02  5.1333622301542321e-02 -2.7964542264449194e-02 -1.9855726666611163e-02  4.0803920253546865e-02 -2.8217086644137846e-02 -1.4638602825373893e-02  4.4350398867619038e-02 -1.6197005018346689e-02 -1.5572967723778766e-02  4.0818153402670365e-02 2.2837381570555201e-03 2.2282754093296306e-03  4.1284910347809366e-02 4.7823716525628767e-04 -1.6318276687467232e-04  4.4952301136716721e-02 5.9034248041215905e-03 1.2432420773261868e-03  4.5419924746676360e-02 -2.9217159109850878e-03 1.8702639522224374e-03  3.7508453670042984e-02 -1.3050655522334703e-02 5.8403953247161845e-03  3.8436243247950780e-02 -1.3774520781322627e-02 2.9713652481292200e-03  4.2025225319675542e-02 5.2640306689822718e-03 -7.6579537954990567e-03  4.3356744907598610e-02 4.3179865566692370e-03 -5.0862825436740668e-03  4.3961655303997496e-02 -7.0857257975947120e-04 -8.5613063244653637e-03  4.6818493139917587e-02 7.0408928503774065e-03 -7.9139703582363566e-03  3.7059521232565999e-02 3.1457719899434446e-02 4.2452019817642494e-03  3.7685380779036680e-02 2.9030039934551961e-02 9.6107831167510226e-04  3.9355848122381819e-02 2.0616201355718792e-02 3.3100589182869394e-03  4.3789896969646573e-02 -2.0105253426938426e-02 -2.1796374897810585e-03  4.4160427570765756e-02 -1.2231926818899648e-02 1.4261778896381045e-03  4.4486014254256155e-02 -1.0533222002253215e-02 -2.9024237094314865e-03  2.3981645549181609e-02 -2.9156354150273026e-02 -1.0285712371338530e-02  2.5735883449597159e-02 -2.8885841860883263e-02 -1.3343626193776676e-02  6.0107687891827050e-02 1.2944973714553923e-02 -6.7295817410763167e-03  6.1211201981934103e-02 -2.4488980939650711e-03 -6.3715952027550765e-03  4.4319375040163755e-02 1.5552429623387888e-04 4.6836928100288120e-03  4.2834041707933528e-02 5.4520224844139421e-03 9.0757659767382228e-03  4.5775645633885240e-02 6.7717374984074203e-03 6.0715476957391512e-03  4.1957345196398613e-02 9.2907413645770334e-03 7.0520983406954152e-03  3.5852200478929293e-02 -1.6547386683850664e-02 6.9779912944784150e-03  2.9481910054132861e-02 3.4475724552352913e-02 8.2141048436622406e-03  3.0868993697869225e-02 3.7866773371790327e-02 4.5567514449142230e-03  3.5740173728244985e-02 3.1972151692833239e-02 8.6814943888698995e-03  4.5728954346251689e-02 -2.4098479362278935e-03 1.2512664388270513e-02  5.0596686874349470e-02 5.3041146947778953e-03 1.4132742312348685e-02  3.8443647539058330e-02 -1.6752387402518130e-02 -1.1494939441230478e-02  3.4719906232328422e-02 -1.9218556850109959e-02 -7.3485951959585292e-03  3.8845383638037662e-02 -1.7933852912806629e-02 -8.1088189516527430e-03  3.7091837952592688e-02 -1.2867495072647044e-02 -7.9531862503836957e-03  4.1879728145919753e-02 2.4715314021031651e-02 1.8897334407158514e-02  3.9817946340701404e-02 1.6539390554922418e-02 1.5812074506126289e-02  5.5992568058172099e-02 2.6343608675206354e-02 -5.7138723729286637e-03  5.2728592377876811e-02 1.9094521659694268e-02 -2.5610508530861729e-03  4.6695153338242659e-02 2.8035215112212384e-02 -6.3177494571379231e-03  4.9891369898431417e-02 1.7454786436792623e-02 -7.9822081989374561e-03  3.9131005161107929e-02 1.5037000068242077e-02 9.2040115110763789e-03  4.0253529461231397e-02 9.5430385360501281e-03 1.0217079338660881e-02  3.5384464516026851e-02 1.3353370377354264e-02 9.1606238043296252e-03  3.7486554729353368e-02 9.3500093757409603e-03 8.3020840216860969e-03  3.7024826822531262e-02 1.9917986712905778e-02 -1.0697188005659337e-02  3.2426668845153155e-02 2.2858189683753818e-02 -8.5582686805221585e-03  3.0092489059470390e-02 2.1779547166572058e-02 -1.0963764192482467e-02  3.3027712023709119e-02 1.8321230338420223e-02 -1.0393467667071306e-02  2.9008566188513583e-02 2.9227223949658276e-02 3.6777696260392760e-03  3.0876911390864424e-02 -2.7422423645749611e-02 1.4433580910275816e-02  3.1903647675883641e-02 -2.4620164827179492e-02 1.8024015078656707e-02  4.6776501854726191e-02 2.7796264812979376e-03 -1.1216618021998671e-02  4.1231659276005375e-02 3.4842303429586320e-03 -1.0053755289471724e-02  4.0263116117621657e-02 7.9910465182771260e-03 2.3386334138418689e-03  4.8635506253243664e-02 6.9205534760173005e-03 -1.9818737056153661e-02  4.3202531724163003e-02 2.4232112874308233e-03 -1.6386902443901667e-02  3.3464845800853973e-02 6.3136283006313999e-03 1.2928331569839763e-02  4.7284991873908687e-02 4.1070615497765563e-02 -2.4192891910102140e-03  3.2515481355024405e-02 4.0371303811917086e-02 -6.5110607193323675e-04  3.8112653617675643e-02 3.7032343995557410e-02 -4.7879477703602598e-03  4.2086976391240809e-02 3.5708462703455845e-02 1.7842513726699707e-04  4.5774766334422498e-02 -5.5480255284053722e-03 -1.6751218469453429e-02  5.0077705579422746e-02 -8.9502899202785029e-03 -1.5090208195324920e-02  5.7474660056914303e-02 -2.3567733099982857e-03 -2.1915316166091551e-02  5.0958539721439579e-02 1.6050384629850833e-03 -1.4955024872873207e-02  3.8264555754712382e-02 1.4891160292704118e-02 -1.3183925982005283e-02  3.4806099821240027e-02 1.4055379718053339e-02 -9.8373580841202742e-03  2.9726938853900462e-02 2.9032938576438908e-02 -8.0425113350842228e-04  3.1713040724435121e-02 2.6997146486288308e-02 1.5846507090183975e-03  3.0162168001321345e-02 3.2939738620193587e-02 2.1387314389939250e-03  3.7753819383931270e-02 1.5455720551941547e-02 3.4432461755191600e-03  3.7595812849113910e-02 1.6473292090151866e-02 1.5969639168690712e-03  3.1218416060895593e-02 -3.0771114649669633e-02 -6.8509912720627144e-04  3.6079257654492082e-02 -2.4243573016829691e-02 2.0300010871606407e-03  3.6267160271478395e-02 -2.9240301924901877e-02 -4.1027448588652163e-04  3.8855990781322632e-02 -2.2571178807158577e-02 -5.6041697445656461e-03  3.8343462303584187e-02 -2.2267268642267999e-02 -2.0806594007403223e-03  3.4936840629566326e-02 -2.1498975693530088e-02 -2.3775209406713140e-03  3.5103864403888574e-02 -2.7587708300138705e-02 -3.5125587633510215e-03  4.1450551196544762e-02 -2.1224319947063666e-02 -1.0388963317307527e-02  3.5793088112141894e-02 -2.3292750625204941e-02 -9.5604680167959422e-03  3.0711094937642489e-02 2.2045510607624538e-02 -1.5466281699166711e-02  3.2303215015639111e-02 2.1805727225386044e-02 -1.3246078397439401e-02  3.0806619008619068e-02 2.9248089233917387e-02 -1.4714805895298007e-02  2.7649418504838274e-02 2.5295982000375666e-02 -1.5472005961801998e-02  4.2727290770084365e-02 -1.2376771446639866e-02 -8.2448948416316680e-03  4.3261041371248504e-02 -1.4000607403612683e-02 -1.1707171266411234e-02  4.8764448664825370e-02 -1.4389981160904038e-02 -1.1591519329405151e-02  4.2504577635480975e-02 1.7445981173999481e-02 -7.2093780472508914e-03  3.7442724890175916e-02 1.5196068073639182e-02 -5.3425699468081936e-03  4.2421193067033111e-02 1.0468240662079123e-02 -6.0643854489610570e-03  4.0339976125359209e-02 2.7226932300672774e-02 -4.5577125416911939e-03  3.6136176023158162e-02 3.2824265168824703e-02 -2.1226932100563076e-03  4.1122895920754715e-02 1.5680562751051431e-02 6.5372669005061279e-03  3.8562559544926253e-02 9.8287010327748631e-03 6.2741501966821715e-03  5.6465101307087574e-02 2.5226765491372361e-02 7.2228766327189584e-03  3.6798090814221050e-02 2.3011872232402017e-02 -7.9888762692632547e-03  3.5301124281449124e-02 1.7974842758130917e-02 -7.8109552709202416e-03  3.8934452817504780e-02 1.6151566851170151e-02 -7.8407099935550676e-03  3.5639792271592176e-02 2.0500284149077903e-02 -4.9724233698379763e-03  6.1001122609357118e-02 -8.0415840195982094e-03 -9.2703311607283019e-03  4.9053329961315263e-02 -1.0836491640808495e-02 -6.8790362448818837e-03  5.1374883743353236e-02 -1.6320302976557508e-03 -9.8523587748164995e-03  3.6052887932657027e-02 1.6667718125685488e-02 6.5494516864968225e-03  2.6027205409798557e-02 3.3011567795208724e-02 4.7567198127383376e-05  3.9508869654823149e-02 2.6093310890716894e-02 6.6764819368218256e-03  3.5813034035584633e-02 2.6333910741644741e-02 3.1528597079172652e-03  3.9814389729515669e-02 -7.0305775146595664e-03 -4.7942867738700965e-03  4.1437507286133532e-02 -1.5452571859894916e-02 -5.0741379883320458e-03  3.0124017508470873e-02 4.2187627677174433e-02 -1.2718663468151552e-02  3.4247784940045871e-02 3.9669432241892920e-02 -9.1423069133064368e-03  3.7603567884720454e-02 -1.4511086370969296e-02 1.8029822203697556e-02  3.8831634102486794e-02 -8.7715190759285744e-03 1.7805766745866085e-02  4.2473499934556777e-02 -1.1529973552053176e-02 2.1143836043920530e-02  4.6426225132199954e-02 -9.6157034386917997e-03 1.6885900028597856e-02  5.4491796270424421e-02 -1.4434343935512605e-02 -2.2563996602769757e-02  4.1825832279675484e-02 -3.0126623885196345e-02 -2.7897756780621993e-02  4.0204380372572769e-02 -2.8708475143793551e-02 -1.9112170588335926e-02  4.5049708670664018e-02 -2.0502064145773411e-02 -1.9962017999190854e-02  4.0598247998620267e-02 -1.7835156722173291e-02 -2.1550413362751306e-02  3.7164887429276768e-02 3.2370374302193264e-02 -7.1344137055557285e-03  3.5397142339400743e-02 2.6733221182298966e-02 -5.3108844270656139e-03  4.5540457892768484e-02 -2.3518192699020772e-02 -7.3419939404169932e-03  4.2312583458795426e-02 -7.9479111831246754e-03 2.5486977545075475e-03  4.2639042490694751e-02 -7.2583704029692692e-03 5.2013271900411447e-03  3.9823393681805208e-02 1.8664396720665173e-02 -2.0702665842225090e-02  4.5511996528431332e-02 2.0055845173646818e-02 -2.0187886752261006e-02  4.9378848088551960e-02 -2.7199442951389617e-02 -2.3404975164729811e-02  2.6979203643419117e-02 3.0801436475639522e-02 -5.5113449977991719e-03  3.2080282652603570e-02 2.6562729002202919e-02 -2.9970386299115214e-03  2.7261476704150089e-02 3.1327758747742664e-02 -3.0588473871137169e-03  4.3657866020386911e-02 