<?xml version="1.0"?>
<VTKFile type="UnstructuredGrid"  version="0.1"  >
<UnstructuredGrid>
<Piece  NumberOfPoints="176" NumberOfCells="644">
<Points>
<DataArray  type="Float64"  NumberOfComponents="3"  format="ascii">0.3808210433871149 -1.763882641155164 0.817384939724187  0.3085523311331526 -1.969610247897571 0.6877920714727481  0.4909769421302074 -1.93099433805855 0.7575947101728453  0.4013802327098077 -1.958173202723359 1  -0.478103915917917 -1.622351537092959 0.6977077997690853  -0.7019581915565072 -1.428580415300582 0.6030955109277132  -0.5009139441539338 -1.349251873811594 0.5222432048981768  -0.600331598708143 -1.59479459233563 0.5327841362643094  -0.391399680066276 -1.237628786651703 0.6919365007968804  -0.2590693906238568 -1.20275231542913 0.4440646667880484  -0.0283024105191868 -1.319764063833097 0.6643409374643552  -0.3013774395956234 -1.46260667850183 0.4980611061261317  0.509899363520301 -1.411274404689723 0.7930410904030668  0.3070347646120418 -1.231266475456671 1  0.4006956025444619 -1.24843802094553 0.6812500201025888  0.2057664659883401 -1.423434689071494 0.7640294242581815  0.2382892175692876 -1.471591899036973 0.4955209781265861  0.2441482264665806 -1.68711095498594 0.2543611194868012  0.1435408183010254 -1.450724164001282 0.2140138195018315  0.364943845569369 -1.449405072691717 0.2215112330483742  0.2062702119573308 -1.209832294552009 0.5069451591351182  -0.03861139831730298 -1.305902836371665 0.3300992328426874  -0.05411455619544295 -1.180335689722473 0.5033519982168086  -0.2895078849523348 -0.9521440258122447 0.5362539270910905  -0.1357582835267979 -0.9866289761380859 0.6952505369826913  0.580573651550607 -1.903815473393742 1  -0.3199640933144202 -0.9429052360103518 0.2421718464526027  -0.2125504397148364 -1.162691776221664 0.1975610850782581  -0.1357582835267979 -0.9866289761380859 0.3047494630173088  -0.4351952344254975 -1.947915534096728 0.6879022171241533  -0.2402120605469595 -1.711293099448459 0.5951721536062687  -0.4600007231585856 -1.741224516301115 0.839054333966232  0.2714449589252247 -1.737958397311344 0.5450653594799665  0.1950572695963902 -1.642354837545477 0.8022942540786289  0.03120277905539251 -1.811956316928485 0.8125929633736308  -0.4440833295236094 -1.71425197172058 0.4678594158892408  -0.4183657802379684 -1.953020693211437 0.408732946950341  -0.5813842162651643 -1.903569591275731 0.523429982291165  -0.3808198010052772 -1.790558406603984 0.1504571686824595  -0.5815907792414369 -1.730327197418943 0.1999992988745308  -0.5077763251465293 -1.9258983009339 0  -0.4183657802379701 -1.953020693211436 0.2277978856468753  -0.07500943433028509 -1.474435204751512 0.1919497770721977  -0.3137778112923204 -1.68608512553939 0.2678397090627448  -0.03520767882359688 -1.640567625407656 0.3320536221747551  -0.1566368448175122 -1.793720957643859 0.18398156279419  0.05030182414384535 -1.803661568783909 0.2036923702794375  -0.03543509394030583 -1.764333212356711 0  0.2713321621710769 -0.9576575710401055 0.4639489892092016  0.2407869516577543 -0.9669233593494102 0.2422811437659894  0.05343103384430749 -0.9947375024938501 0.5  -0.2014555392941981 -1.478248236877164 1  0.003668755892212508 -1.493215934204981 0.787439376260352  -0.02232178777519556 -1.473130981466516 1  -0.154369246248236 -1.699740344597331 0.7947821971961868  0.1007019071959621 -1.603439299358557 1  -0.9480652577231136 -1.538949907681568 0.8061489537317872  -0.6368272338775195 -1.693027353228223 0.8099549854831261  -0.6846365793693017 -1.619799801115259 1  -0.87374366514047 -1.789830458324557 1  -0.3199640933144202 -0.9429052360103518 0.7578281535473974  -0.2659591891699546 -1.1284900652415 0.7985766483770914  -0.590119815534959 -1.900919676207915 0.3182654162986099  0.05343103384430752 -0.9947375024938501 0.7658315521872422  0.5834852897946156 -1.717308399664762 0.1887386398541893  0.397761442467862 -1.76067971301323 0.1654331644783746  0.5973730345669322 -1.89871943626909 0  0.5007099757113176 -1.928041854600282 0.3180605671254946  -0.01611705518357669 -1.173434577098943 0.1859369354259534  0.07154606132155185 -1.321715210143045 0  0.1477956984970681 -0.9854433942448714 0  0.1801353948751905 -1.193599542703115 0.2007384199400539  -0.7677466476962631 -1.430304235837895 0.8149664493944945  -0.5616060024380179 -1.386687091185208 0.8148643367043878  0.04801221851458279 -0.9952712092202078 0.2405432884014712  0.2407869516577542 -0.9669233593494104 0.7577188562340107  0.4037512339627746 -1.080144681274499 0.7916997388280334  0.4195556527163921 -0.9041709201262842 0.6951876610204601  0.3315216749971926 -0.9393992819363619 1  -0.7219618228038823 -1.307247678942268 1  -0.424931754213151 -1.254338206796035 1  -0.5126054700643949 -1.558802044544336 1  -0.7773345907527112 -1.628786731198925 0.6526384974201469  0.2154728929730389 -1.978777772385657 1  -0.2495643282831916 -1.975420059079501 0.523296014419804  -0.2558928613726579 -1.974796752974326 0.7590571066826004  0.1565705466232291 -1.98457914713868 0.5229942139642612  0.1475013517951027 -1.985472384864622 0.3180605671254942  0.04828442375762464 -1.791526417147052 0.4778949596205868  0.3259282302928228 -1.967898871204743 0.4084490649969672  0.1222954257414549 -1.987954951894562 0.7650725853231248  -0.1841632852949054 -1.481781513248469 0  -0.4201509119839557 -1.525914389044415 0.189673720245272  -0.2066708202968356 -1.710304351128139 0  -0.2063280620574955 -1.495866829825451 0.7392619680215531  -0.2831750095673835 -1.332000524373365 0.8438495817462545  0.1630944082857211 -1.206736717024586 0.8238329233967183  -0.4925834195271322 -1.072587773108498 0.7942257610232533  0.2828443174131989 -1.737656437702833 1  -0.3883412669983054 -1.709972901898877 0  -0.1591006558617752 -1.799092254611054 0.4138410682020805  -0.04681361121901211 -1.995389261734823 0.4985223211824886  0.4780196499422931 -1.718624147876173 0.4860276821231871  -0.2291981602613921 -0.9704387807865139 0  -0.4224459877560165 -1.246963081678484 0  -0.1715341369901447 -1.250280438524388 0  -0.06985643973039744 -1.505194664433397 0.523152896576856  -0.6681267201658774 -1.099552128393463 0.6661740090429282  -0.8234030488632201 -1.227864263700687 0.7971660546693747  -0.4956491309591998 -1.563380666785781 0  -0.570561261929752 -1.566210270682464 0.3269063393272681  -0.06425241373943445 -1.993671689601718 0.729857195431886  -0.04138279557917732 -0.9959241503885642 0  0.07147491772190356 -1.320431062428882 1  0.4566179955496571 -1.609390190456626 0.6989686505589768  -0.7913424350245954 -1.833874833437536 0.7298481380810278  -0.703769127003654 -1.86644453447963 1  -0.6141724175832546 -1.893623399144439 0.7648375940174668  0.5038238211581905 -1.074271211065006 0.5112063182307277  0.384799343308686 -1.090040125494568 0.2000785832607395  0.3833720884367542 -1.248266169376449 0.3125100964111098  -0.07109493962348024 -1.160016603803898 0.7913171746870674  -0.2070688864027299 -1.749288561046629 1  -0.3435919104164638 -1.966159150560913 1  -0.1572369759532961 -1.984513509578723 1  -0.4792183519131534 -1.094876157717112 0.5312084515566817  -0.4088784021612257 -0.9098780294493575 1  -0.2291981602613921 -0.9704387807865139 1  0.1055482849989484 -1.63881390081868 0  0.04658873361579337 -1.995411410245547 0  -0.3004712434665469 -1.361497103422282 0.2311894560585964  -0.3577107155310289 -1.419581028094554 0  -0.1397662008473739 -1.986234230736643 0  -0.8300753132502592 -1.509513793106689 1  -0.1714146569792246 -1.249399926207965 1  -0.5229419073512893 -1.071131864134972 0.1858598554011229  -0.5521062382202796 -1.211666613348794 0.3442023460192692  -0.7757759682717937 -1.842195283264316 0.4985126599772499  -0.7840616717201718 -1.583902828399041 0.4377923672640045  0.4296356271564918 -1.668302941522659 0  0.2329436680789611 -1.977057051227738 0  0.4181796157261328 -1.953077165598708 0  -0.2405080359740243 -1.976312026018243 0.3182654162986064  -0.04681361121901163 -1.995389261734823 0.2684782053199095  0.3259282302928228 -1.967898871204743 0.2276720692540216  -0.5245757081628545 -1.920802263809248 1  0.4437787684872145 -1.472384709319954 1  0.6936374543645428 -1.490116486267707 0  0.617899748202294 -1.653792821188109 0  0.3625909582016644 -1.44728628771407 0  0.6027785381133539 -1.359332156263882 0.2124371689903601  -0.3745805923603168 -1.706049989398783 1  0.3050541620145898 -1.223363442299307 0  0.5587472371219874 -1.203112900522971 0  0.02911795850987068 -1.997132131403467 1  0.02102039698148424 -1.670231480651327 0.6665040657880474  -0.5554583074974289 -1.700068917560503 1  -0.3793482891095545 -1.432319692681395 1  -0.6869697439873288 -1.871540571604282 0  -0.7580030332512193 -1.620602597475575 0.200800306043187  -0.04382570390722906 -1.692004976314984 1  -0.04138279557917732 -0.9959241503885642 1  -0.775775968271794 -1.842195283264316 0.2684499835474483  0.1477956984970681 -0.9854433942448714 1  0.1011187221479815 -1.772944272062136 1  0.5105785823554512 -1.583270420542069 0.3212501110323914  0.4598397724961487 -1.407027747603131 0.4646693967668116  0.2622963428434327 -1.552259734357269 1  -0.7625848589994415 -1.249272832911995 0.4545509433042903  -0.3261211353105415 -1.967879871718833 0  0.49198228108192 -1.930689371821647 0.5229837268563096  -0.670056525276606 -1.377886873936386 0.2250212001955873  -0.6240956319681428 -1.097419055583654 1  0.4999697403346577 -1.076876380065217 0  -0.5391031786369436 -1.386651023185445 0  0.3315216749971926 -0.9393992819363619 0  </DataArray>
</Points>
<Cells>
[...]
<PointData  Vectors="f_18"> 
<DataArray  type="Float64"  Name="f_18"  NumberOfComponents="3" format="ascii">1.0781633526917290e-02 -5.0197054795790251e-02 -3.9502228252793811e-03  7.4120710165275208e-03 -4.8060038238014580e-02 -2.5257633725505315e-03  1.1921526040264974e-02 -4.7213400920800487e-02 -3.3155953143709917e-03  9.7756445572086195e-03 -4.7792566875217032e-02 -6.2893749416059420e-03  -1.5361320921266597e-02 -5.0979704141332217e-02 -2.3741676001028675e-03  -2.4648296020950058e-02 -4.9447361696815156e-02 -1.1517700135752933e-03  -2.0805828128601919e-02 -5.5269294684212704e-02 -1.9352693160744100e-04  -1.8946946814563246e-02 -4.9405322519957676e-02 -3.7203095689553652e-04  -1.9274794220612675e-02 -6.0564023121798018e-02 -2.1249771695954337e-03  -1.4120406674578074e-02 -6.4716059242291818e-02 7.2749997084828398e-04  -1.3862153683587002e-03 -6.2818280651060904e-02 -1.8692795394275009e-03  -1.1878569247120994e-02 -5.6311540495629239e-02 5.6915225096318202e-07  1.9554731754755125e-02 -5.4077681615634095e-02 -3.5364837216619823e-03  1.5531678113600449e-02 -6.3050939790138982e-02 -5.6524325289619981e-03  1.9229525545579558e-02 -6.0164552050230032e-02 -2.0394756671182923e-03  8.2931855300497990e-03 -5.8654981596288708e-02 -3.0597297049674219e-03  9.1984467765398349e-03 -5.6899042168270013e-02 -1.0113919166318265e-04  7.4408921689658875e-03 -5.2452328664161212e-02 2.8335137959737342e-03  5.5609027561254274e-03 -5.8336357917690249e-02 3.2069079811424348e-03  1.4006713015087602e-02 -5.5834381824039242e-02 3.1939179382963292e-03  1.1041548065838208e-02 -6.5447727067035069e-02 -8.3086461946009057e-05  -2.0096020650961235e-03 -6.3375056117044776e-02 1.9008056544318917e-03  -3.1761596733852395e-03 -6.8353475768213920e-02 -6.2137053621244507e-05  -2.2530566874035908e-02 -7.4604578895018162e-02 -6.3708948812012052e-05  -1.0708822528174355e-02 -7.7155689518309700e-02 -1.8908917254764617e-03  1.4290343462338852e-02 -4.6826514421016541e-02 -6.3928068645463521e-03  -2.5029466810659966e-02 -7.3235673842584059e-02 3.2203711690704600e-03  -1.2321064776569152e-02 -6.7103524052050570e-02 3.4877625127136755e-03  -1.0575274291483423e-02 -7.6890356966268752e-02 2.0648403758709031e-03  -1.0901619550274477e-02 -4.7444547697493837e-02 -2.3105629182912316e-03  -7.5575056897285303e-03 -5.1999532849004791e-02 -1.1608774650515665e-03  -1.3343213853764876e-02 -4.9552782588795329e-02 -4.1280313344153798e-03  7.9158624027732636e-03 -5.1382550524159430e-02 -6.9498645013314677e-04  6.3474069852071987e-03 -5.3600312506937586e-02 -3.7265900014359877e-03  7.4680605397096163e-04 -5.1209549611045908e-02 -3.8491800228911341e-03  -1.3299076743239132e-02 -4.9925663552755503e-02 4.0027876159238530e-04  -1.0514165158233790e-02 -4.7342830516019646e-02 1.0010807527358714e-03  -1.4538710643723104e-02 -4.6372143243223217e-02 -3.3337141990604722e-04  -1.0998129938747119e-02 -4.9608620329198473e-02 4.0829840257469007e-03  -1.6482099936021392e-02 -4.8024250082156376e-02 3.5246999257925789e-03  -1.2829830946419662e-02 -4.6859973283721754e-02 5.8822514126035752e-03  -1.0554421106847917e-02 -4.7345231967123161e-02 3.2297825665483899e-03  -3.0715279132936661e-03 -5.7946719226754206e-02 3.5353509956995779e-03  -1.0085725428535360e-02 -5.1722493811368862e-02 2.7188292394483057e-03  -1.3137893617092438e-03 -5.4060467720009019e-02 2.0172516232489250e-03  -4.7439996788888909e-03 -5.0958689413013673e-02 3.6968897703683530e-03  1.2281872154172762e-03 -5.1137726247135876e-02 3.4363652370704842e-03  -1.2778627790100340e-03 -5.1799166144481094e-02 5.8972840573941112e-03  2.1297685294297354e-02 -7.4693658983142480e-02 4.7605462712094128e-04  1.8767515866521114e-02 -7.5523830761325475e-02 3.1642505438565305e-03  4.0158885834549107e-03 -7.7729126998589804e-02 1.3494461811474828e-04  -7.9770507945722754e-03 -5.7330010789127486e-02 -5.8268203683759659e-03  1.7412890724231317e-05 -5.7737652502211079e-02 -3.3863159981546644e-03  -1.1320477613861186e-03 -5.8332207779182028e-02 -5.7973505635719857e-03  -4.9645802359537415e-03 -5.2770443695286953e-02 -3.6011667177979724e-03  3.3665750910091990e-03 -5.4993048505698749e-02 -5.8640273213430823e-03  -2.7078184899929161e-02 -4.3479416956850682e-02 -3.5851414582405909e-03  -1.8339639250087556e-02 -4.7810403492642144e-02 -3.6941430147501026e-03  -2.0536443983017270e-02 -4.7959597772925057e-02 -5.9547332307738595e-03  -2.1673947701339628e-02 -4.3751957908685087e-02 -6.0124212897945742e-03  -2.4925659868165650e-02 -7.3760052247803881e-02 -2.9209582054824492e-03  -1.6033263964747548e-02 -6.7372211563251447e-02 -3.1644258404778898e-03  -1.4776610126706559e-02 -4.6207314564578383e-02 2.1586207071626336e-03  4.2049917851476127e-03 -7.7592621982710483e-02 -2.9019149122225685e-03  1.6358418048007174e-02 -4.8374668340904904e-02 3.5973384061111862e-03  1.1151775557439493e-02 -5.0004830047882178e-02 3.8667972686294225e-03  1.4566702447094605e-02 -4.6436677013278305e-02 5.9415780906576492e-03  1.2126497892672646e-02 -4.7085221426025690e-02 2.0349052042451595e-03  -1.0182869570994674e-03 -6.8481900492318698e-02 3.5462215112703073e-03  3.1747155884804170e-03 -6.2745159692972535e-02 5.5447468551419951e-03  1.1349533007191997e-02 -7.7601442135112844e-02 4.9709452189454894e-03  9.9860594324115322e-03 -6.6347400794686998e-02 3.4505612104785864e-03  -2.6100293143787329e-02 -4.7946554319068725e-02 -3.5857634995477379e-03  -2.1872148334488181e-02 -5.3290519701135068e-02 -3.5604800770140136e-03  3.6393537743746539e-03 -7.7556325679624574e-02 2.8392528579840866e-03  1.8751568682726479e-02 -7.5526359560365117e-02 -2.9276363366891787e-03  2.4392967065201526e-02 -6.5223529554554793e-02 -3.2265058909661018e-03  3.2892263170062712e-02 -7.0489409110013321e-02 -2.0838478596310163e-03  2.6017221743014504e-02 -7.3588043080956442e-02 -5.3257189371164072e-03  -2.8083220118087469e-02 -5.0430970667533277e-02 -5.7043359564143119e-03  -2.0245846837714781e-02 -5.9489370945814454e-02 -5.5765996722055471e-03  -1.7188417385673786e-02 -5.1571296262925032e-02 -5.7784030310833647e-03  -2.2364754609871289e-02 -4.6030798266023187e-02 -1.7517826265704126e-03  5.2427084165979718e-03 -4.8664351211336318e-02 -6.2897230550980465e-03  -6.3368225609279055e-03 -4.8135825567305439e-02 -3.9357317759850235e-04  -6.4544833126998170e-03 -4.8232132370123977e-02 -3.3669290776339672e-03  3.6605866161356169e-03 -4.8512093697228316e-02 -4.6651139795682452e-04  3.4356898125653527e-03 -4.8549389522357371e-02 2.0321742820963418e-03  1.1325024597273307e-03 -5.1407888634268741e-02 1.7762509144507761e-04  7.7724332773312496e-03 -4.7848395620883104e-02 9.3171206106379563e-04  2.8519060024581240e-03 -4.8637531434567949e-02 -3.3899168365473680e-03  -7.4222975159071317e-03 -5.7058210709452592e-02 5.8276105178189713e-03  -1.5048483331948203e-02 -5.3198165156352832e-02 3.6450932365414907e-03  -6.5837049829065644e-03 -5.2124910390481498e-02 5.8173986144325835e-03  -7.8679805638479147e-03 -5.6790569250727813e-02 -2.7428111368077131e-03  -1.2899948352554173e-02 -6.0153089092463127e-02 -3.8790104380998060e-03  8.8699030480067428e-03 -6.6325229202818956e-02 -3.6805791116893208e-03  -2.8750429370409780e-02 -6.1920966035798095e-02 -3.3058761598247911e-03  8.2181604715788805e-03 -5.1545888068320021e-02 -6.1062292990130248e-03  -1.1905671515183935e-02 -5.0740687534472494e-02 5.8998729490816245e-03  -4.8402890334105289e-03 -5.0967795120703839e-02 9.1920133381178206e-04  -1.4405824108832239e-03 -4.8598985996820179e-02 -1.6526553324059675e-04  1.3866142665458407e-02 -4.9741258674751848e-02 5.0077440663339296e-05  -1.8026654350100386e-02 -7.5792994634087035e-02 5.2655350194595494e-03  -2.0429727561176163e-02 -5.9400983776833879e-02 5.7766984512630706e-03  -9.1999933519716637e-03 -6.4384291143414207e-02 5.5216929995608732e-03  -2.9042396852213210e-03 -5.7091243398147369e-02 -2.9804413589825144e-04  -3.3398135193806716e-02 -5.4556903132259194e-02 -1.8277860684635778e-03  -3.2621808276808981e-02 -4.8001885152176876e-02 -3.3368635401513852e-03  -1.6551100606621329e-02 -5.1485805489929606e-02 5.8285536069532951e-03  -1.8575955840265272e-02 -5.0284880787779880e-02 2.0853519125526914e-03  -1.7703880451682993e-03 -4.8662274926318548e-02 -2.9403129970331310e-03  -3.1702925712337707e-03 -7.7569759189106788e-02 5.5362606424632019e-03  3.4090821106008682e-03 -6.3041438108576070e-02 -5.6221492921208812e-03  1.4600957769669229e-02 -5.1610907090034942e-02 -2.5458661757521558e-03  -1.9563801248473778e-02 -4.4487393554126939e-02 -2.8184381266582771e-03  -1.7465254618532957e-02 -4.5525528245032768e-02 -6.1091856925982188e-03  -1.5249704093374478e-02 -4.6166478913550101e-02 -3.2312900821559933e-03  2.8861047986095980e-02 -6.1684295256989166e-02 -1.8985098671044716e-04  2.3219839074844966e-02 -6.5346240916818649e-02 3.3030842394206734e-03  1.8594261132275341e-02 -6.0517641950768641e-02 2.0577648581480575e-03  -4.3799595835460987e-03 -6.9076471494312994e-02 -3.2580257351714865e-03  -6.2588640059797101e-03 -5.1743020182296880e-02 -6.0174839102097883e-03  -8.5668355964245713e-03 -4.8045562434228889e-02 -6.1501476157664907e-03  -4.0924836546067638e-03 -4.8639330267629198e-02 -6.1926831494889794e-03  -2.7278516659546895e-02 -6.1834094089756174e-02 -2.3685247097643273e-04  -3.1999831640345706e-02 -7.1485500552622344e-02 -4.7703778180250888e-03  -1.8045481628370150e-02 -7.5793269935054794e-02 -5.2588045509912654e-03  3.3784925813702682e-03 -5.4005179353929768e-02 5.8029481174726978e-03  8.9881704564588486e-04 -4.8565283450156885e-02 5.9412797465060634e-03  -1.3217357755678266e-02 -5.8808193966389338e-02 3.2461913216359612e-03  -1.4500749221932688e-02 -5.6500469745050248e-02 5.8243486935089369e-03  -3.7433617995721587e-03 -4.8469344321856740e-02 5.9241149487778812e-03  -2.5616534852648590e-02 -4.6120366837066044e-02 -5.8454108114086925e-03  -8.8058956596711122e-03 -6.4528652973801115e-02 -5.4482176491801905e-03  -2.9984887777924435e-02 -6.0821598300454610e-02 3.8399842652851613e-03  -2.5996311522332165e-02 -5.6647789703980440e-02 1.8566164178196094e-03  -1.9186319185779763e-02 -4.4596805456251352e-02 2.7238994239573174e-05  -2.3294935160619409e-02 -4.6244312527488958e-02 7.4587063996154799e-04  1.3090987280472257e-02 -5.1001070588835296e-02 5.8651177722539713e-03  5.5157032006401862e-03 -4.8371455517906017e-02 5.8948259190494713e-03  1.0083223507977605e-02 -4.7588378898719981e-02 5.9261164433115632e-03  -6.2028738163731941e-03 -4.8157550304323296e-02 2.0894811868272536e-03  -1.4234576074166085e-03 -4.8522892420663433e-02 2.6358810194662291e-03  7.7435709945267656e-03 -4.7870885645527272e-02 3.1553005199780773e-03  -1.3013816204183631e-02 -4.7024363057092948e-02 -6.1506534501101755e-03  1.6411587724378677e-02 -5.4370479384703713e-02 -5.9123690215336314e-03  2.2893681155448684e-02 -4.9016297586019122e-02 5.7923348990007676e-03  1.8115768110065326e-02 -4.8595004216684314e-02 5.8048846222223428e-03  1.3997610646945097e-02 -5.6005647500786460e-02 5.7942916011503413e-03  2.3437876178747687e-02 -5.2826254164845182e-02 3.2703627127294841e-03  -1.1375451188377609e-02 -5.1056652363625200e-02 -6.0430651777862599e-03  1.5703443194641099e-02 -6.3254905750901563e-02 5.5893409544232877e-03  2.6406292902632474e-02 -5.6950918087137405e-02 5.5232396779466000e-03  5.2201869634398688e-04 -4.8833617927959115e-02 -6.2421446327542672e-03  5.9327424500778346e-04 -5.3695964266253116e-02 -2.0673124778415389e-03  -1.6243570070237103e-02 -4.9036070717228243e-02 -5.9684703177851984e-03  -1.4921650561285589e-02 -5.6196918415945096e-02 -5.7420749734403429e-03  -1.7199256686877159e-02 -4.5459025755053499e-02 5.9396456023183154e-03  -2.2051688392402933e-02 -4.6267361059019359e-02 3.5966333152224338e-03  -1.4407524878702993e-03 -5.3379959672370976e-02 -6.0169610729542628e-03  -3.0546544338627612e-03 -7.7804814865737829e-02 -5.2468751232981510e-03  -1.9245629632089194e-02 -4.4556083818201482e-02 2.7664217880896962e-03  1.1712376657499395e-02 -7.7409806499382977e-02 -5.6889767596139170e-03  2.8578991364837714e-03 -5.1877813414404540e-02 -6.1106131248934254e-03  1.6412333410890479e-02 -5.1192871786401993e-02 2.0066188828282284e-03  1.7985153921370043e-02 -5.5225135524993495e-02 2.6128304475338379e-04  9.3053882438601972e-03 -5.5153966380056763e-02 -5.9396339310090049e-03  -3.0660643133750810e-02 -4.9636818299494685e-02 6.1209941052450464e-04  -8.3112565152065644e-03 -4.7875651041115880e-02 5.8802452990299970e-03  1.1912858948480008e-02 -4.7176139768804096e-02 -4.8755989136817262e-04  -2.4917401384959112e-02 -5.0683500524654521e-02 3.2190723148284002e-03  -3.2341143677985761e-02 -5.6478684807638881e-02 -5.5312567057981005e-03  2.8735601180996492e-02 -6.1813900497362524e-02 5.5396278680258215e-03  -2.1142667804172850e-02 -5.3603451504937533e-02 5.7512918583043282e-03  2.5584011449236613e-02 -7.3402952879446662e-02 5.5636326228027718e-03  </DataArray> 
</PointData> 
</Piece>
</UnstructuredGrid>
</VTKFile>