<?xml version="1.0"?>
<VTKFile type="UnstructuredGrid"  version="0.1"  >
<UnstructuredGrid>
<Piece  NumberOfPoints="176" NumberOfCells="626">
<Points>
<DataArray  type="Float64"  NumberOfComponents="3"  format="ascii">-1.462744779920422 0.4173062759430208 0.7927788025429325  -1.315004706961013 0.6972167789990056 0.7557377227898123  -1.24261630433174 0.4137133052539228 0.6762314288941822  -1.564690195006766 0.6196325639107423 0.6892222911693506  -0.9912607890003962 0.0887306983322423 0.7688596154928593  -1.157675661796024 0.2874316557483794 0.8237284357888865  -1.193677763294787 0.02935523231729001 0.812175874957884  -0.9819498088636408 0.1832666661363625 1  -1.370317109984933 0.6068829405856371 1  -1.374007622100844 0.09777626041767989 0.7163944533892758  -1.497526988319634 0.06223231979832809 1  -1.257318893890059 0.113297357199552 1  -1.426410269324307 -0.2746123173713337 1  -1.500573791635198 -0.1343119170450844 0.7793914918465166  -1.628642811205088 -0.2280282795420948 1  -1.553893487133441 0.2026855142925206 0.8123817161664363  -1.724055721366079 0.08454345261679307 1  -1.730806770054562 0.2680869584325063 1  -1.738241993048834 -0.1668323661063556 0.5052707113179995  -1.678786771260193 0.05495038097256552 0.6892783914122976  -1.475115822476183 -0.1061604368231795 0.5102968426790093  -1.65956562518322 0.6779485992594181 0.1896533736052345  -1.720532437548271 0.4373519509618823 0.1754478773861343  -1.709763549103771 0.6410356720050135 0.4332539624816215  -1.885130003936691 0.6421713892771141 0.270111656601095  -1.636071442661823 -0.3475227057135603 0.6780535416162582  -1.770439526340713 -0.3857097409097593 0.4625341959737544  -1.944522349779485 -0.4463810640409471 0.5920894244586623  -1.974189182631205 -0.2620616265888291 0.7298883433989083  -1.311232433775281 -0.5655346387499858 0.2575624298059242  -1.115114617145163 -0.4774046250283511 0.183365501259989  -1.389282245793132 -0.390104725039531 0.1762849063852214  -1.272047610987646 -0.2896564134506388 0.3164264087849299  -0.9290527823196455 0.3656295132424565 0  -1.190015801986949 0.4859549610262058 0.2855300420029705  -1.154952165344322 0.2392481477379702 0.1941991349140578  -0.9566144206959937 0.2747709680011161 0.2420850819122637  -0.9917877951958876 -0.08337991463409308 0.3014470703819548  -1.203640036831656 -0.08325252803474509 0.4828454397889581  -0.9711427085821456 -0.226877621308203 0.5  -0.9912607890003962 0.0887306983322422 0.5  -1.200554184744864 0.1951582901488528 0.5722415843174004  -0.9566144206959937 0.2747709680011161 0.7579149180877363  -0.9807852804032304 -0.1950903220161286 0  -1.209935812895535 -0.3819042831015633 0  -1.820860037820459 0.0940778455954159 0.8249209159235769  -1.740429359649223 -0.4716914031645397 0.8098827929228846  -1.675175657750933 -0.6607398531446582 0.8269759785572082  -1.863047176396528 -0.7149687156812052 1  -1.892475081514288 -0.6179579134933961 0.6823257906480289  -1.694030268265159 0.2521086332974301 0  -1.9123088686015 0.5525746798567135 0  -1.963291281964382 0.3727098689263164 0  -0.8818497861445191 -0.4613155571981953 0.5  -1.150536973579396 -0.480913571459282 0.4660449197857321  -0.9563006605232179 -0.2758052966743181 0.7404721885678482  -1.971763274727665 -0.286692282878117 0.4416850368765731  -1.989110983577033 -0.1105580390958591 0.2754498220525415  -1.761579966123775 -0.2663709394208962 0.2302127468000587  -1.93944788191584 -0.4631093427328397 0.312468973614769  -1.7586360996564 -0.1593651247605219 0.7674836060750635  -0.8818497861445191 -0.4613155571981952 0.7311394935597686  -1.115941880422272 -0.4305433895007025 0.796606423718511  -0.9256039491140714 -0.3769987926575506 1  -1.212002869458737 -0.2375731748946453 0.8353124047479963  -1.21000317190587 -0.3819247162339598 1  -0.9807852804032304 -0.1950903220161286 1  -1.525927344464973 -0.2393749232136364 0.2219150219271743  -1.415930250292146 -0.03013962490768879 0.2431523579218497  -1.749285118686629 -0.0940061731589974 1  -1.575027654417853 -0.4272778672614745 0.3583387676772505  -1.376556337245432 -0.4413811822579451 0.4728095292503682  -1.540546267421118 0.3160575247297414 0.5788901295650919  -1.725771647669393 0.3430097485514121 0.7545419563727896  -1.72596058113537 0.4955108474915281 0.5828909256489527  -1.969434863507119 0.3103330387327409 0.6361264082428812  -1.929321970332065 0.4964899996873173 0.7245501779474556  -1.190487498900903 0.03615294689702322 0.2137535486344003  -1.473771864508179 0.1228524379847805 0.4668768675845455  -1.986252054781623 0.1395852302816939 0.4691986221315061  -1.780044200666404 0.05311175152980256 0.4889464863196062  -1.991422321557937 0.08709063075238727 0.2572330376846003  -1.972468461473287 0.2795324016947319 0.3020560919448448  -1.720206073487053 -0.3872292339129283 1  -1.917404905726146 -0.535775296840406 1  -1.9650120031223 -0.3552390938204129 1  -1.944522349779485 -0.4463810640409477 0.772562156837397  -1.731067350347138 0.3425306741520479 0.411742788949795  -1.940529183105366 0.4595447704201737 0.2391745997996103  -1.939447881915845 0.4631093427328218 0.4952633427125438  -1.907212831476848 0.5693740628730387 1  -1.733336968666854 0.4378256679860146 1  -1.961570560806461 0.3901806440322567 1  -1.570108367541714 0.5323200146201426 0.3214131146464111  -1.4996994999672 0.3046073686345621 0.2461276645980091  -1.573062635283103 0.710522813525687 1  -1.69636532186868 0.6500391759259293 0.82538474617488  -1.664660741945468 0.560043186159905 1  -1.85285510214723 0.74856748171384 1  -1.295818339527629 -0.1133243096087688 1  -1.450441019651562 -0.2765949854519154 0  -1.5576587466791 -0.06806370280219359 0  -1.222473603421901 0.3518873350067027 0  -1.46295663988695 0.3280486082887119 0  -1.257150721370752 0.1132818288738338 0  -1.614445528027136 -0.0895553740106462 0.3477398800377443  -0.9482005564984586 -0.3025077610903928 0.2301063922394252  -1.796694049967172 -0.01478787568249089 0.2086438349576154  -1.781864168871655 0.1864306443293937 0.1730525028907116  -2 -2.449293598294706e-16 0  -1.540227286709983 -0.7594309578000181 0.7158969883666931  -1.432341127333238 -0.8020961674110092 1  -1.285361083627857 -0.7056318215590633 0.7820307561532949  -1.459371640292367 -0.5186517413535566 0.749881381869644  -1.875920433601355 0.672531273966861 0.7616887288907539  -1.34376490772025 -0.6629168230233793 0.5232079866624604  -1.146979132093379 -0.6111977257244187 0.6415714464460128  -1.285156043291617 -0.351816949472253 0.6633811875835041  -1.992530085494706 -0.07584331475312509 0.504736657287455  -1.683847711978677 -0.6637140041757016 0.3554943844166969  -1.647750840002398 -0.5800941792630666 0.5582074612571528  -1.111399709213698 0.3143340114943649 0.3936982570693697  -1.417412770778386 -0.48194566875493 1  -1.596231885380743 -0.724927919435626 1  -1.635305746268364 -0.5480427802511509 1  -1.13407750712131 -0.2153179274375809 0.6269079539693194  -1.250327345612778 0.359966722685725 1  -1.358753583540909 0.4331344014522989 0.4586164123344102  -1.877945506506339 0.6658555032582358 0.5583149631234268  -1.687422812760598 -0.5289845451979994 0.1787939533334902  -1.963291281964381 -0.3727098689263351 0  -0.9994177357697949 -0.005911827939883069 1  -1.774018349100714 -0.2423465202832379 1  -0.9819498088636408 0.1832666661363625 0  -1.161618529882714 -0.6086679473328844 1  -1.412883232192979 -0.498916897224404 0  -1.304133030842394 -0.1097012979738302 0.6789968233247218  -1.599403017832927 0.3964101795874956 1  -1.652148460867653 0.1195813693636491 0.3168599109785838  -1.465782815393488 0.1193474926581011 0  -1.295023116703767 -0.113245986996865 0  -1.820074272553176 0.817161468448121 0.4079105755413405  -1.828344611031377 -0.8016887534344467 0.501479594258776  -1.895141120398549 -0.6091691611241368 0.4773268319077155  -1.989102099333176 0.1106482423375056 0.6979439080551546  -1.99827927884208 0.01747077510592193 1  -1.979924919824271 0.2038257095690893 1  -1.027492750785988 -0.6524847028891798 0.8199378413995048  -1.436854688949139 0.2633462915169819 1  -1.292882032904074 0.2047573215974398 0.3447930596874081  -1.663935857491406 0.5750728785195803 0  -1.781648922374962 0.2379196086930771 0.5841112152691851  -1.828344611031377 -0.801688753434447 0.7315233149267526  -1.78431344816284 -0.8840652651795469 1  -1.559641239500735 -0.4052782369023943 1  -1.820074272553177 0.8171614684481179 0.2274378431626041  -1.598442001919816 0.8131212705610243 0.8005177185861571  -1.7677624176777 0.9150300652967593 1  -1.857951139271881 0.7317680986975148 0  -1.98336636214011 -0.1688841593572455 1  -0.947388990623786 0.3051831352366393 0.5363564105802381  -1.650217386037167 -0.3811273884986385 0  -0.9917877951958877 -0.08337991463409308 0.6985529296180453  -1.557364917173048 0.7833533360165803 0.4519990588587856  -1.811833783889858 0.8325783383860297 0.6875310263852326  -1.623972487846827 -0.7834420794628646 0.5282118138501414  -1.972459577229428 0.2796226049363978 0.7864098642370551  -1.98164564098219 -0.1863549344631677 0  -1.981645640982192 0.1863549344631475 0  -1.748038853727744 -0.08681450671670213 0  -1.992530085494706 -0.07584331475312481 0.7646942852785927  -1.562107303025337 -0.8714576333881834 1  -0.9256039491140714 -0.3769987926575506 0  -0.9994177357697949 -0.005911827939883069 0  -0.8370702135273155 -0.5450922451011507 1  -1.391582474002526 0.487267687798005 0.2096997911392877  </DataArray>
</Points>
<Cells>
[...]
<PointData  Vectors="f_18"> 
<DataArray  type="Float64"  Name="f_18"  NumberOfComponents="3" format="ascii">-8.4432281239993981e-02 2.4877993522137671e-02 -4.6132666972836280e-03  -7.8782689793832628e-02 4.2704650777119615e-02 -3.9533489072935378e-03  -9.2355560699105485e-02 3.1721022445744963e-02 -2.3588332343690154e-03  -7.6807356590176318e-02 3.1250215226040871e-02 -2.8775319639494858e-03  -1.1823175851819478e-01 1.1791545183396352e-02 -4.4220994484818086e-03  -1.0102849758703211e-01 2.6096414012072765e-02 -5.0824077930332551e-03  -1.0386862710692292e-01 3.5417295520919637e-03 -4.8964638765950346e-03  -1.1663738524694489e-01 2.3010025722971911e-02 -7.6272907926229691e-03  -8.1345299664043663e-02 3.6881757702013976e-02 -8.3567188214693448e-03  -9.3601053687306687e-02 7.4709671108565846e-03 -3.1762851977206567e-03  -8.8712465599243243e-02 4.4252636630815363e-03 -8.1425812340600087e-03  -9.9743542167462687e-02 9.8683441515134175e-03 -7.9500848932729431e-03  -8.8919268006131272e-02 -1.6482824875090722e-02 -8.2745838287425974e-03  -8.8003346882745512e-02 -6.9756368802190048e-03 -4.2718219332476721e-03  -8.2680972843557229e-02 -1.0922453503747398e-02 -8.3877255323381011e-03  -8.5373050615804191e-02 1.1934796694449027e-02 -5.0170275387010476e-03  -8.1177172402062361e-02 4.6447667184761733e-03 -8.3521144273676507e-03  -7.9795541232181091e-02 1.3283219735349683e-02 -8.5563666858564577e-03  -8.0168177160790721e-02 -6.9372236549470351e-03 4.2811864733356800e-04  -8.2496157128666661e-02 3.5163019688701004e-03 -2.8107279963268642e-03  -8.9119741338171132e-02 -5.4256259631145247e-03 2.1459365242247876e-04  -7.3685331493859266e-02 3.0906726184746762e-02 6.0658870259586543e-03  -7.7538431467155319e-02 2.0637309800502730e-02 6.3679536720284346e-03  -7.3737973182796304e-02 2.8435974810659952e-02 1.6478659208009811e-03  -7.1365011345907933e-02 2.5046206119652220e-02 4.7367056828975873e-03  -8.0804097380033482e-02 -1.6394379767459888e-02 -2.6537887898203118e-03  -7.7041923455181668e-02 -1.6019536696863308e-02 1.1488559148828384e-03  -7.3241990333031123e-02 -1.6011245296646246e-02 -1.1611463058974647e-03  -7.4560502308719759e-02 -9.1786972222943491e-03 -3.6926461124418418e-03  -8.3729488232408458e-02 -3.5165620210592309e-02 4.6008403509745083e-03  -9.4342288754066542e-02 -3.9555821747361136e-02 5.9917536191686988e-03  -8.7284465028677524e-02 -2.3684925423131893e-02 6.0640267075332483e-03  -9.4838299937294479e-02 -2.0714993360689053e-02 3.4682493580165679e-03  -1.1067790269947858e-01 4.4534129496985445e-02 8.5870927436394826e-03  -9.1290284394330998e-02 3.8251009763916620e-02 4.0897232715031385e-03  -1.0292263374474002e-01 2.2256646882067382e-02 5.7283414981314932e-03  -1.1441542489851773e-01 3.3309196719505156e-02 4.9976827202364398e-03  -1.1824177398742634e-01 -8.1151329223175857e-03 3.9193405764499332e-03  -1.0332320966446668e-01 -5.9983265335056789e-03 8.4452212345985465e-04  -1.1583110992990442e-01 -2.5576725569170823e-02 4.2280767283957987e-04  -1.1829794803908947e-01 1.1902775302831840e-02 4.9044819730712354e-04  -1.0129868605786214e-01 1.7501466569079104e-02 -5.8008172449579515e-04  -1.1437170725488903e-01 3.4059161081984403e-02 -4.0465540080793375e-03  -1.1622877443182078e-01 -2.1916028636236037e-02 9.0223615258627453e-03  -9.4918643930941335e-02 -2.8975887601164024e-02 8.9109188226577096e-03  -7.8514824775385142e-02 4.8249968786344211e-03 -5.3284687812947939e-03  -7.6366126192233083e-02 -1.9870815308739905e-02 -5.0533831493480364e-03  -7.3502304625699025e-02 -2.8234560253940402e-02 -5.4743173162367965e-03  -7.0012443389278214e-02 -2.6150811201198651e-02 -8.7755506870925912e-03  -7.1256708038532859e-02 -2.2582536684018984e-02 -2.9857808841987936e-03  -8.0967457177253954e-02 1.2835006786199808e-02 9.4603308534245284e-03  -7.2562098971241565e-02 2.1734721113127964e-02 9.7237055905495702e-03  -7.4033181495064632e-02 1.4883861862660537e-02 9.6426750565754300e-03  -1.0490993809130689e-01 -5.4094329624179677e-02 5.8549223326220974e-04  -9.2784321675943748e-02 -3.7899596782765436e-02 9.3064294484391044e-04  -1.1407255260529536e-01 -3.1891170275281919e-02 -3.8974853178404341e-03  -7.4292966887185466e-02 -9.9953465677697223e-03 1.5164120446812780e-03  -7.5212130717399628e-02 -3.2998935281674281e-03 4.6578899855401253e-03  -7.8803224907213004e-02 -1.1091693723822927e-02 5.3381778926191257e-03  -7.3079632183451315e-02 -1.6721348777862487e-02 3.8996639136486067e-03  -7.9731097403993256e-02 -6.4630380494027119e-03 -4.3456084621156512e-03  -1.0550044841440410e-01 -5.4153929176650656e-02 -3.5544751026819759e-03  -9.6742906101660878e-02 -3.6490861262697960e-02 -4.4819821733339312e-03  -1.0979689440446956e-01 -4.3644344719506248e-02 -8.0465578798990540e-03  -9.9152000815621602e-02 -1.8598397198324353e-02 -5.3244097179756845e-03  -9.4934346903703740e-02 -2.9132012558617724e-02 -7.9868513940687703e-03  -1.1684811120668880e-01 -2.1964969680371784e-02 -8.1780467338889648e-03  -8.5887479353313492e-02 -1.2610997819398133e-02 5.2634667204105156e-03  -9.1977664982493532e-02 -1.0022206304158836e-03 4.9568229365909372e-03  -8.0455924983313123e-02 -3.7285950150093461e-03 -8.4852075343714202e-03  -8.0832743622548484e-02 -2.0936750329375871e-02 3.0416822840107255e-03  -8.6322624889478464e-02 -2.6848392932936782e-02 8.8660836050213714e-04  -8.4323443468747053e-02 1.8172318277589739e-02 -9.2688675793136212e-04  -7.8730243989420925e-02 1.6454407578887616e-02 -4.2050926218351707e-03  -7.6358838967195045e-02 2.2853815667900658e-02 -1.0024178912214231e-03  -7.4205553238387206e-02 1.2490969312558511e-02 -1.9567848936994248e-03  -7.2901616323181540e-02 1.9494373563792345e-02 -3.7481925412499537e-03  -1.0434476985548374e-01 4.1835912988530009e-03 5.3025384873650909e-03  -8.9196462114758054e-02 8.3748276483225845e-03 1.1920569406635721e-03  -7.5077016444162800e-02 5.9755030777877780e-03 1.1307185081456770e-03  -7.9714736878801012e-02 3.2530139664691368e-03 7.6256475292407278e-04  -7.5183657635271309e-02 4.1605729742909851e-03 5.0177710736671079e-03  -7.4544022215063510e-02 1.1265749926678349e-02 4.2290386343226578e-03  -7.8205586555344472e-02 -1.6780230226192842e-02 -8.5374282064995706e-03  -7.2486441077735192e-02 -1.9572579776031874e-02 -8.7133778375215742e-03  -7.4008138946611235e-02 -1.2700864724908955e-02 -8.6303104134937067e-03  -7.3198140466946157e-02 -1.6048337959619872e-02 -4.5069835846807361e-03  -7.8719579529058475e-02 1.6330540608486221e-02 2.1063326227589393e-03  -7.3360261344677657e-02 1.8136685862457123e-02 5.3588473909077731e-03  -7.3151692980602992e-02 1.8285880651059027e-02 5.6523054511464766e-04  -7.2487187110369944e-02 2.2344700244278197e-02 -8.7534352556314886e-03  -7.7426183468060170e-02 2.0473759800689436e-02 -8.5567579255393083e-03  -7.3936401344896402e-02 1.5487263753667215e-02 -8.8070029665412355e-03  -7.8850493649392575e-02 2.7605338158940493e-02 3.7031503742520205e-03  -8.5635205016457716e-02 1.8412363409757097e-02 5.0450324873700754e-03  -7.4243690228836548e-02 3.4512468133276561e-02 -8.3216773427112357e-03  -7.3796632909144080e-02 2.9097600321606493e-02 -5.3939342084363484e-03  -7.6502339425875879e-02 2.6597115302563541e-02 -8.6254445863932008e-03  -7.0058343674626475e-02 2.9010547125508303e-02 -8.7585199611064108e-03  -9.7275075562015270e-02 -7.7609561925548942e-03 -8.0528093675204856e-03  -8.7961791844833756e-02 -1.5802841680605473e-02 9.2098030924747075e-03  -8.6523260306191868e-02 -2.8492012950947620e-03 9.3833007008512787e-03  -9.5783189424435644e-02 2.8338245997156002e-02 8.9534484419762344e-03  -8.6895418191962517e-02 2.0430069755650586e-02 9.3314493799230829e-03  -9.9783477862220374e-02 9.8878968179298629e-03 8.8117656821625322e-03  -8.4234126532352155e-02 -3.8425485631079629e-03 3.1290959800264269e-03  -1.1307632312790149e-01 -3.4854248867045169e-02 5.3471501492597211e-03  -7.9344742272589641e-02 1.3721600253942810e-04 5.7739036922513191e-03  -7.9232397317318598e-02 9.1071882757473507e-03 6.4498543417955308e-03  -7.5278760330019415e-02 7.2504207401353040e-04 9.7019605633220131e-03  -7.2867944951453906e-02 -3.5111940009443891e-02 -3.5175590136524988e-03  -7.2881407432207002e-02 -3.9915787608680142e-02 -8.5313155585131500e-03  -7.8646187992476232e-02 -4.2448795531245226e-02 -4.4181313471334744e-03  -8.1558728689536467e-02 -2.8190645293740164e-02 -3.8348981359756745e-03  -7.0862982088448850e-02 2.6236272964772950e-02 -4.2611605417191157e-03  -7.9378855166697904e-02 -3.8356046319199713e-02 2.6164990286324726e-05  -8.6276596849819032e-02 -4.5002037197245472e-02 -2.0447957408788486e-03  -9.2523927840313228e-02 -2.4521117645977801e-02 -2.2600395816175134e-03  -7.5126780356152334e-02 -2.1333135649323964e-03 4.4930167089130999e-04  -7.3399387280321665e-02 -2.8046680586929024e-02 3.0900016297202106e-03  -7.5874641259274206e-02 -2.5785449381150148e-02 -5.0945738213714587e-04  -1.0240515545767581e-01 2.9774804366783827e-02 2.5280026964373680e-03  -8.3999136494360679e-02 -2.7786066500962013e-02 -8.4841293988138101e-03  -7.3179742335014161e-02 -3.2556244196860290e-02 -8.6401424410884296e-03  -7.7052473020296663e-02 -2.5033335079055447e-02 -8.5245789867024937e-03  -1.0467279514700539e-01 -1.9034909480390626e-02 -1.6514083279171004e-03  -9.4125580024025893e-02 2.7894516738277770e-02 -8.2243686917571786e-03  -8.7372979141174964e-02 2.8907267190723483e-02 1.0530347104900620e-03  -7.0912688883958727e-02 2.6150661207307198e-02 -5.8033207390557646e-04  -7.6238249454657625e-02 -2.3168731377333825e-02 6.2069396334245653e-03  -7.3878616023395419e-02 -1.3192816246799289e-02 9.6065859929604057e-03  -1.1847290011904371e-01 2.6273821416103253e-06 -7.7078153941760770e-03  -7.8817215146195801e-02 -1.0048647818896972e-02 -8.5007544710388235e-03  -1.1657224901572508e-01 2.2827238229993562e-02 9.1449200567953904e-03  -8.6097443500949056e-02 -4.4343051271416904e-02 -8.0644532713854723e-03  -8.3382027889839741e-02 -2.8502934916057605e-02 9.1438694084249490e-03  -9.6863089940563071e-02 -7.3328297186283017e-03 -2.5967796226116910e-03  -8.1359691569699924e-02 2.1059461223841135e-02 -8.2750332129279264e-03  -8.3024814997075869e-02 6.7358955541578841e-03 3.7815722482903037e-03  -8.9693530421596709e-02 8.2139811555755268e-03 9.1680058917971898e-03  -9.7380046939767984e-02 -7.6275228893685661e-03 9.0331079709306105e-03  -6.8730260215483022e-02 3.1717577933752295e-02 2.1648399898023230e-03  -6.8519445540063187e-02 -2.9250769596440841e-02 3.8710921531107768e-04  -7.1502136451623136e-02 -2.2190030622006838e-02 8.9808921568369717e-04  -7.5046025644295689e-02 4.7341901575774269e-03 -3.1306674181279404e-03  -7.5213778199671469e-02 1.4896813793399363e-03 -8.6518580862584883e-03  -7.4998063920008462e-02 8.4784979800134816e-03 -8.7153988036787044e-03  -8.6301050908992677e-02 -5.4141457084067077e-02 -5.0149947183309737e-03  -8.8942808592662695e-02 1.7362750432226386e-02 -8.4320262646805869e-03  -9.6238415168738892e-02 1.6022915718103995e-02 3.0764320870448440e-03  -7.6074988816287839e-02 2.7238367270734334e-02 9.5201041062134908e-03  -7.8602885971490455e-02 1.1234906952938476e-02 -9.1116683838032505e-04  -6.8546669566254020e-02 -2.9354739798556514e-02 -3.8048292492196961e-03  -6.7448756414029185e-02 -3.2558659501093240e-02 -8.7411691740625803e-03  -8.1991574650584112e-02 -2.0523315655766036e-02 -8.3563272054950101e-03  -6.8822154722922108e-02 3.1692524627012122e-02 5.4772294055355046e-03  -7.0940033954454862e-02 3.6920337365024800e-02 -4.9270417461061873e-03  -6.7132466288606960e-02 3.5465361516558276e-02 -8.8408217270111843e-03  -7.0152876212226697e-02 2.8472780792830929e-02 9.6530444004846328e-03  -7.5083323922559037e-02 -5.6247576551881453e-03 -8.8132442560457571e-03  -1.1311318419794676e-01 3.8030698994284393e-02 -1.3147748903118343e-04  -7.9968831121076583e-02 -1.7668819801060075e-02 9.3682656963413897e-03  -1.1847850559626542e-01 -9.1013095645573958e-03 -3.0666173315568347e-03  -7.2238489009581131e-02 3.7114721897848896e-02 1.3353055212510711e-03  -6.8488977942613147e-02 3.2247445866890170e-02 -2.9355778125109812e-03  -7.1064638451143858e-02 -3.3460785840196156e-02 -1.6423185818687113e-04  -7.4440235409305014e-02 1.1317377292660051e-02 -4.7974712253947005e-03  -7.5066698214978411e-02 -6.1848365711450722e-03 9.7190269266360044e-03  -7.5200972719466172e-02 7.8797738917355913e-03 9.9459145649899317e-03  -8.0537782322089052e-02 -3.2591983166135405e-03 9.5600102394497542e-03  -7.5009645274518116e-02 -2.0865033144415379e-03 -4.2936540088334375e-03  -6.9328059175312665e-02 -3.7966398673866683e-02 -8.6326707753360266e-03  -1.0952622498071821e-01 -4.3490466653628719e-02 9.4073271189064230e-03  -1.1834385303171499e-01 4.3388135681040214e-04 9.4842008544614286e-03  -9.8891917500807572e-02 -6.3527168321101321e-02 -8.9968960062563642e-03  -8.4799403161468875e-02 3.0496146684941761e-02 5.5593679039223154e-03  </DataArray> 
</PointData> 
</Piece>
</UnstructuredGrid>
</VTKFile>