<?xml version="1.0"?>
<VTKFile type="UnstructuredGrid"  version="0.1"  >
<UnstructuredGrid>
<Piece  NumberOfPoints="512" NumberOfCells="2036">
<Points>
<DataArray  type="Float64"  NumberOfComponents="3"  format="ascii">0.5668903241785761 -0.8221794535781284 1.907447677106904  0.3573077921208102 -0.931577148823802 1.869345932802062  0.3803448068999544 -0.9245889467903353 1.63109208210855  0.7515111043082954 -1.072403376408446 1.726857470392507  -0.4110105156711639 -1.202710722563737 3  -0.2728750356463495 -1.40528416043813 2.751367144169643  -0.1974330685997361 -1.517981232226387 3  -0.5154153491449851 -1.402827814406427 3  -0.5050584774146081 -1.217188684097516 1.869628035972452  -0.2297024960636879 -1.215139212755556 1.877242757058314  -0.4629648632736991 -1.14453983123708 2.156031963921787  -0.3174578795440642 -1.351539522133417 2.099901799200242  -0.05725472340525808 -1.276452563101851 2.201603180209699  -0.05821607733009468 -1.694498948191016 2.242036300095007  0.1261865205882303 -1.315154927773589 2.421917368929744  -0.1733507538578632 -1.49632633843649 2.493414307511857  0.2547589484023274 -1.701285345681544 1.485048602246494  0.1530221731440286 -1.984928631422282 1.514643753720291  0.2702247064364303 -1.973385189441298 1.302131298391996  0.3970642112818749 -1.959482453509901 1.498248425634686  -1.252208718574231 -1.255676782608476 2.240162865292683  -1.27880378834883 -1.097780360767302 2.484224604771694  -1.271058698454983 -1.531697722994652 2.368959930138202  -0.9864279935205215 -1.43590426619299 2.473369520863257  0.005411775363112981 -1.715510474141662 3  -0.08952865272329452 -1.58757690734094 2.774410511097231  -0.03741147490816631 -1.799717897785098 2.780949192277687  -0.1912871887741021 -1.720232435760223 3  1.143117929213057 -1.332984790918304 1.291712047176803  1.287925026486669 -1.250286655418541 1.563230302022756  0.9818456603842673 -1.44849919396431 1.467043373094701  1.211759553235815 -1.580363273790293 1.573400789366199  -0.8612948758462922 -1.221512208357321 2.388776408797193  -1.103306607305279 -1.004878108249375 2.228634784643735  -0.9933755656962664 -1.196355148776187 2.600714888111475  1.024076557683159 -1.240771688279978 0.3581982769033679  1.199121664768376 -1.043758421937294 0.2175119642994899  0.8752834790046372 -0.9845817366901065 0.2720073073847573  1.243446925972203 -0.9224347818266605 0.4510139155757393  0.1370067673555018 -0.9865060112137281 0.4943644520525992  -0.05694722622227542 -0.9943911877720703 0.7507721659874088  0.1320447463629548 -1.182832957089002 0.6902427824991655  0.1430188445468729 -0.9859138732940584 0.8313480453215276  -0.822628199668554 -1.52403016447813 2.019744910374486  -1.137120165772262 -1.641618236042073 2.030266844189874  -0.8119819854109458 -1.822842763915013 2.148432273903636  -1.073191843237068 -1.68322318608683 2.402982894159042  -0.6965381550096228 -1.263411683811706 0.2201411073362053  -0.5498994166274705 -1.391214809444014 0  -0.412283203064343 -1.206339064170058 0  -0.472057609283929 -1.122634025922136 0.2215686865375343  0.539749255821079 -1.046194356883078 2.751521077914877  0.8050898180109509 -0.9497681377614944 2.763296839455024  0.5668903241785762 -0.8221794535781284 2.695921887862566  0.6565945984642327 -0.7485610582252132 3  -0.3090547349213359 -1.733782822231273 2.753250382172248  -0.3660489630911821 -1.62983828964596 3  -0.1290768228226704 -1.767499512707659 0.2261580487777737  -0.3970022116813076 -1.959501260883118 0  -0.1702606446686183 -1.983230790170092 0  -0.2837038060335636 -1.972057614005986 0.3215453807926998  0.1465251446514881 -1.73907258865477 2.052362879985445  0.2816975673726751 -1.660518898766998 2.325193354607649  0.1397279329429357 -1.459834466177887 2.095509752031251  -0.2506531156837949 -1.656250029703367 0  -0.5264396218653206 -1.672251217010075 0.2257929171958778  0.6275793050122525 -1.061282229358439 0.6139564212235973  0.6058695462362139 -1.134557262598285 0.283188955010585  0.8697784629840319 -0.9839181505452814 0.5805049722654703  0.4571403144093698 -1.428621652759034 2.494390534496498  0.5047633414098978 -1.701091909258534 2.483976055265135  0.5954271997185592 -1.581432446132397 2.251429001024046  0.3160481489608198 -1.56489709249298 0  0.4068982193666512 -1.382801193772659 0  0.1848413712825857 -1.309244353432439 0  0.2644202715362862 -1.294332619968876 0.3273702600412591  -0.864222685469313 -1.344010265136865 3  -1.173261837785776 -1.321148382165857 2.753760704174639  -1.023041572867971 -1.485771084613054 2.769756251302412  -1.072094206455028 -1.343211096479959 3  0.9777758768151188 -1.348216993986192 0.9918469369685869  1.114295833704897 -1.28147243621458 0.6855145931193174  1.320387986146934 -1.491214222819183 0.8600609971591007  1.029264670858431 -1.70670274889404 0.8593106238042493  -0.3134150892756098 -0.944891854666456 0.8570186476746575  -0.5620455767304046 -0.8261554350557641 0.917008705134106  -0.6418750066813135 -1.208129984863322 0.839815923464834  -0.3904275899126728 -1.2228139766883 1.028784403977877  1.186300453527206 -0.734929539024147 1.419223726198589  0.7428011018494809 -0.6636131256152955 1.368183410332982  1.022899481669183 -0.8720254180038959 1.208965058497697  0.9816364272629136 -0.8206169157505248 1.611242864071161  -0.5165692160891929 -1.374562558584865 1.448384292940016  -0.2006876627817145 -1.255576727933068 1.544096825345338  -0.2182191563329928 -1.324006023279175 1.272207769236289  -0.4579492489555881 -1.149998254665638 1.31048055841493  0.03186603807096211 -1.22963221989316 1.141399856671786  0.1138559628501345 -1.493856819924277 1.103505226451604  0.2923078162116554 -1.286717793236007 0.8862421744670977  0.3072728703049077 -1.209346354525099 1.182782829638393  0.5459377022159313 -0.8366183072844964 1.0453579218402  0.4591164897377005 -0.8830252121908606 1.331510509655913  0.736697608482531 -0.9632137350693124 1.242715976306874  0.9278371823501179 -1.760916870993254 1.884461016268806  0.7040141174319205 -1.8663702174457 1.888179206275236  0.5546597939269164 -1.628244773786683 1.70776452956828  0.9225403939060037 -1.763748063401409 1.6370849341872  0.7806031548831832 -1.478809209481999 1.29770302707122  0.9093934520498621 -1.175619264770395 1.370879865155112  0.7371411818549486 -1.245407650695017 1.199727170311771  -0.6057053128434888 -1.355206891995083 2.10687605578104  -0.8922614140538092 -0.9598247585280195 1.721329349967923  -0.8274914396327392 -1.265169519277624 1.867400399538058  -1.027088725179825 -1.341886914879584 1.625457201280138  -0.6827309685052868 -1.128648610721406 1.506009069118481  -0.2834188814953068 -1.972085676623609 0.6000394301296303  -0.3171266928342252 -1.695646660390988 0.5737328334979085  -0.05702749003043128 -1.994383282476967 0.4760792197932613  0.001479751126067894 -1.346436771942426 2.712937296106372  -0.09398024628993953 -0.9907437536550519 2.710200746303185  0.1370067673555022 -0.9865060112137281 2.561668157674276  -0.1090022595221094 -1.238002071806018 2.503338995054201  0.7042305776901707 -1.866304554944227 0.8852614832278487  0.4665595562254921 -1.938401271095107 0.9110475208049771  0.6221656730775273 -1.637486977936075 0.9987506504405713  0.5810364649610583 -1.903675080480552 0.7403603373058678  -0.3471806443495588 -1.619492974272195 1.061193874939478  -0.2441999497414182 -1.489813934363792 1.459629228249645  -0.4319380754558522 -1.64494032672031 1.396508179060381  -0.8160881253836936 -0.9818400701329597 2.448019308486853  -1.107321762135687 -0.8339207004706223 2.428450381789633  0.1123759044766342 -1.31579680109984 1.394514092508574  -0.01772145217726329 -1.329873414594634 1.743889089178886  -0.02660210747562364 -1.612389279102385 1.489969501922704  -0.8648165414701006 -1.794602105338379 2.614648538236527  -1.073191843237068 -1.683223186086829 2.677994398191178  -0.9797274205773092 -1.356986634496305 2.213800646181586  -1.099466534502359 -1.373540263547909 1.910670219988218  -0.5377781347417314 -0.8409796869639981 1.882835759228553  -0.4401281420773075 -1.158778609558375 1.616127761197094  -0.5446025214562753 -0.8373319762690399 1.659895602401009  -0.42750593623848 -0.8999214050497621 0  -0.3198884544806959 -0.942928180799714 0.2865498643990059  -0.529771480238135 -0.845259332957881 0.3173003373633954  -0.4236071266561529 -0.9020053621884677 2.073571369523039  -0.09220059373596257 -0.9909190341325813 1.959106296746401  -0.09398024628993933 -0.9907437536550519 2.228223040347831  -0.7433832356935295 -1.477644563498893 1.552366829508737  0.3874030646119153 -1.223092269053682 0.6004464045565558  0.3159359661445701 -0.9441271550284744 0.7092648528459149  0.4926101737238671 -1.114076657709663 0.8255237017387367  -0.8361908746458244 -0.5467373724377904 2.130302338675527  -0.6183960401318022 -0.7799098048888704 2.1663619270695  -0.8956011998013778 -0.8071504795590115 2.234858103997369  -0.7329302416911354 -0.6756408035188253 2.438518203312504  -0.1102312877126252 -1.303645564794963 0.9100123692200208  -0.09398024628993953 -0.9907437536550519 1.070209945607212  0.4198286522894198 -1.58265230675512 1.271111778381751  0.5771107580758468 -1.904865930644996 1.303308069989472  0.642290235735911 -0.7603003453326669 1.585534554221589  -0.7402515044326725 -1.107216055192624 2.16642888821684  -0.8936515289701017 -1.056930152793005 2.798917390392618  -0.6356205681608251 -1.011929979963801 2.806883106026603  -0.5661691803201441 -1.193172724899577 2.687105439299263  0.8130454891742492 -0.5780200920072978 0  1.018707798484534 -0.6439604648531093 0.2243333182564357  0.739524184845197 -0.6676060605380746 0.2477314684233518  0.9466399774436585 -0.8576099695738398 0  -0.3468682078969085 -0.934743962076362 2.288463313493335  0.3616757680332487 -0.930252137816687 0.3292993574078236  0.5668903241785761 -0.8221794535781284 2.441120449011604  0.5391723771827532 -1.176483984064486 2.274843200266602  0.795586807817142 -1.152919657014672 2.398574553024427  0.4597997898280238 -1.148132257608279 2.523335142989471  -0.5796097317440221 -1.099062822847452 2.382962715703942  -0.14032
[...]
<PointData  Vectors="f_18"> 
<DataArray  type="Float64"  Name="f_18"  NumberOfComponents="3" format="ascii">5.2780241946351975e-02 -7.7762743203462686e-02 -1.2289318350684340e-02  3.2203693153527398e-02 -8.6988906545920702e-02 -1.0514400454215103e-02  3.5041200752674966e-02 -8.7204790506277580e-02 -4.0371796030707896e-03  4.5428113987636264e-02 -6.5839078232951792e-02 -5.4233147748590296e-03  -2.2495841483431499e-02 -6.3963029762707860e-02 -3.2806383444330116e-02  -1.3615913822489329e-02 -6.6302028975701116e-02 -2.4353601625954388e-02  -8.2764517767473841e-03 -5.9921251338626254e-02 -2.6619602821681652e-02  -2.1356218403067589e-02 -5.7135547377256499e-02 -2.6868582072644708e-02  -3.1276389098622723e-02 -7.3778352190235194e-02 -8.0972022109033742e-03  -1.6309391514678084e-02 -8.1406390503718812e-02 -9.1062559077092417e-03  -3.1860829078876877e-02 -7.5371988430425280e-02 -1.5882027468203191e-02  -1.7961412495095884e-02 -7.4651467663988960e-02 -1.2902223893062564e-02  -4.3451492298293252e-03 -7.9415187707284993e-02 -1.6496473951778591e-02  -3.0001236327342148e-03 -6.6773377821159385e-02 -1.2249556059256917e-02  6.5103353857792886e-03 -7.5872633389667016e-02 -2.0328560237057661e-02  -8.9651080726627086e-03 -6.8980509945660434e-02 -1.8617769181869730e-02  9.4450621738400489e-03 -6.8885842676990480e-02 5.2089778547966350e-04  4.0350751766924341e-03 -6.4071289946971061e-02 -1.6729108308851471e-04  7.7717876514339316e-03 -6.3248438476160962e-02 2.9041300496874386e-03  1.1762564821431976e-02 -6.2389639309243135e-02 1.9232506805515347e-04  -4.6771036844289883e-02 -4.5547781920945565e-02 -1.1877354082498412e-02  -4.9908055318112189e-02 -4.1971147798905123e-02 -1.6245058139947723e-02  -3.9451203479263161e-02 -4.6127440196652651e-02 -1.1665503457458667e-02  -3.7007961943031339e-02 -5.2599544071489993e-02 -1.5579485314408295e-02  -4.1533874128290942e-04 -5.6671544773110621e-02 -2.3320393210894318e-02  -4.3093928264385170e-03 -6.3017329953933929e-02 -2.1918836146394085e-02  -2.0387274871505696e-03 -5.8517664146403588e-02 -1.9291007623596486e-02  -6.9694595185797641e-03 -5.6173812072364326e-02 -2.3191506113385926e-02  4.3130161390209407e-02 -5.1187244575426831e-02 3.3582829213410961e-03  4.7743877705313784e-02 -4.7029770414612079e-02 -1.0283560052167229e-03  3.8037099131864122e-02 -5.6687493618754567e-02 4.5949647113822424e-04  3.8754082742263107e-02 -5.0589675202311071e-02 -1.2099584344720607e-03  -4.1672045361901715e-02 -5.7716496692653524e-02 -1.7274308065552812e-02  -5.4130354622408491e-02 -4.8070672933129076e-02 -1.4095240095282544e-02  -4.3154364195126575e-02 -5.0902058735631875e-02 -1.9995725800768617e-02  4.0489915433941037e-02 -4.9973990971992767e-02 1.9707119923207658e-02  4.6661187912011903e-02 -4.1419687349532934e-02 2.1841113266830865e-02  4.7048640428391117e-02 -5.3649118807332079e-02 2.6476344480427190e-02  5.3077949874672077e-02 -4.0389387438318290e-02 1.9114858041837674e-02  1.1774655514703946e-02 -8.8299783130395951e-02 2.8788141807154999e-02  -5.7035321593464057e-03 -9.1566646822726194e-02 2.1961313061203417e-02  8.4147963943024089e-03 -8.1875576937275943e-02 1.9635418306395303e-02  1.2018650832564266e-02 -9.2059619634826978e-02 1.9102742224313088e-02  -3.2531375022724227e-02 -5.8922978818493142e-02 -8.8344448867095516e-03  -3.6276582764166149e-02 -5.0936445696733883e-02 -7.1992779614230892e-03  -2.6131492846231914e-02 -5.6259317605958994e-02 -8.6604488285803340e-03  -3.3042194079981067e-02 -5.0029772137562316e-02 -1.2075692621826254e-02  -3.3184793231935919e-02 -5.8340242712726330e-02 2.4819081902126221e-02  -2.3685406497857976e-02 -5.6543154752128635e-02 2.7055982667273028e-02  -2.3000746546246110e-02 -6.3489673287611820e-02 3.2892546327709500e-02  -2.9974381893866704e-02 -6.8138466517574950e-02 3.0190584545350525e-02  3.4601693968299742e-02 -6.8048188745588947e-02 -3.0738302393083235e-02  4.7063436477403339e-02 -5.5891411083105434e-02 -2.9067694984507491e-02  4.7982864670122069e-02 -7.0155333534541217e-02 -3.4431876589105063e-02  5.1021217872937910e-02 -5.9370529534616107e-02 -4.2560533791510827e-02  -1.1246282151576669e-02 -5.8884604499140417e-02 -1.9258814634394654e-02  -1.3260889040117615e-02 -5.5866806649670461e-02 -2.4111449710633902e-02  -5.4243416545509630e-03 -5.9177666705419761e-02 1.9630092553294363e-02  -1.1688223872916617e-02 -5.1254841851060828e-02 1.9630010690541311e-02  -5.7722846883939954e-03 -5.2268421572312478e-02 1.9886418009681692e-02  -9.1939593914500926e-03 -5.6064044077190595e-02 1.5612590466928719e-02  4.9088591284221590e-03 -6.6977161856671283e-02 -8.7401812370374726e-03  1.0492435161283797e-02 -6.5782198590124324e-02 -1.3688308682341020e-02  6.7040196150697003e-03 -7.3414848101249403e-02 -1.1669143590906421e-02  -9.9805190674450792e-03 -5.6529049218694692e-02 2.4194002973124788e-02  -1.9064027085562041e-02 -5.6585158615558545e-02 1.9866448257803742e-02  3.9730070720286045e-02 -6.8808367426518482e-02 2.0954273574488983e-02  3.3885425779179690e-02 -6.4802046682474190e-02 2.7024851202770143e-02  4.9926029576800340e-02 -5.6939808194598658e-02 2.0312009278772861e-02  2.0504674322009954e-02 -6.6438962590572415e-02 -1.8814283807188532e-02  1.7517593779863502e-02 -6.0524597848393591e-02 -1.5397201519480435e-02  2.3210036979751408e-02 -6.2470072526399641e-02 -1.2694310784653684e-02  1.0454501893307010e-02 -5.7927252355349172e-02 2.5193270597948316e-02  1.6608482287325824e-02 -6.0045414831427842e-02 2.8089735299943401e-02  8.3547483767902574e-03 -6.5414102535197791e-02 3.1150762521222813e-02  1.3785917144098197e-02 -7.1185183626889276e-02 2.5312068806723695e-02  -3.2625537141319168e-02 -4.9379927112887238e-02 -2.4879595061540888e-02  -4.0329550092094262e-02 -4.4258691867450309e-02 -1.9330667570737731e-02  -3.3925082691871618e-02 -4.8070016257632173e-02 -1.8948482451809742e-02  -3.6096942289693693e-02 -4.3857173403039185e-02 -2.3046589848388574e-02  4.0079176683275937e-02 -5.6000588510870274e-02 8.9498771849743086e-03  4.2453074542223801e-02 -5.0046923130646612e-02 1.3834245378047909e-02  4.0160140926714279e-02 -4.6479514258423518e-02 8.5445729668607671e-03  3.0939685050603280e-02 -5.3136659196670585e-02 8.6302138436139281e-03  -3.0259550615059166e-02 -8.8004561298238998e-02 1.8541869741238226e-02  -5.2428026761817077e-02 -7.7379644402220032e-02 1.7216328989734242e-02  -3.7128448008002204e-02 -6.7214627135522037e-02 1.4676553668256319e-02  -2.5181587265716319e-02 -7.6811363878667840e-02 1.0951887725909838e-02  6.5106362263304352e-02 -4.0507051403763691e-02 1.8407997798252113e-03  7.0417894660118316e-02 -6.2355568631693441e-02 3.9036714734581282e-03  5.9690390705154285e-02 -5.0868574020838331e-02 6.4649614660978443e-03  6.1806340659800028e-02 -5.2576295443977017e-02 -2.5559302056555521e-03  -2.6832014300304248e-02 -7.0027670494701169e-02 1.2509101061894624e-03  -1.4001262854283054e-02 -8.0778279345850593e-02 -1.1370004793930029e-03  -1.3558166394633002e-02 -7.8095008627024967e-02 5.1671757772835860e-03  -3.1437260409881013e-02 -7.6965345034284802e-02 4.5008835070575424e-03  1.6961464436984093e-03 -8.3615271539298278e-02 8.4821711317340318e-03  4.5053932051196365e-03 -7.3880670505755183e-02 7.9443798337485490e-03  1.6861943879716179e-02 -7.6539907526558607e-02 1.4219417193212286e-02  1.9716217708375283e-02 -8.0232482868106636e-02 7.8128720005911610e-03  5.0613843812644659e-02 -7.8613624539207477e-02 1.3890942418953065e-02  4.2092270037755106e-02 -8.5223512740176366e-02 5.3810895502880611e-03  5.0433065217491850e-02 -6.6685176907783320e-02 6.3259199932841443e-03  2.8991296982512720e-02 -5.5665857175139666e-02 -5.7351107286094903e-03  2.1709304554666894e-02 -5.8969896253401981e-02 -5.6285678192035289e-03  2.1393507691396297e-02 -6.5462784533490748e-02 -3.4472355315290225e-03  2.9047853768531834e-02 -5.6463780784408529e-02 -1.8312874436248422e-03  3.1962417575810489e-02 -6.2131888115548671e-02 3.5328208584472888e-03  4.4467317758600508e-02 -5.8766976821934123e-02 2.7539660197480635e-03  3.7925022626677921e-02 -6.5185937464405930e-02 6.0836695926025355e-03  -3.1002025334657232e-02 -6.6820551577495502e-02 -1.1556500199104005e-02  -5.5613693856247752e-02 -5.7842741987293708e-02 -4.9256937955443735e-03  -4.0971315862677257e-02 -6.0861647382076660e-02 -7.3120757948478329e-03  -4.3475295777065277e-02 -5.4733772435358971e-02 -2.1370826813291574e-03  -4.2279428657887863e-02 -6.8236684796064900e-02 -1.4120609171724321e-04  -9.5373360875271856e-03 -5.9011131796910164e-02 1.2212273227819852e-02  -1.3212408764136397e-02 -6.3326369719541392e-02 1.5294327077867825e-02  -2.7720367667847749e-03 -5.8526785519132846e-02 1.3579331868019221e-02  -5.6503605086529211e-04 -7.1241450062080922e-02 -2.5564747202119927e-02  -8.0824180526435172e-03 -8.5504237310772682e-02 -3.4530842545438527e-02  1.1850418979420189e-02 -8.8426156662516492e-02 -3.0361163041876322e-02  -7.7650847272943361e-03 -7.7889262279877386e-02 -2.3595414003479379e-02  2.1174105595151746e-02 -5.8611664566660455e-02 8.4964652315628088e-03  1.3590836551919599e-02 -6.0332964086475670e-02 8.0932879244517055e-03  2.3205629364244137e-02 -6.2968814345286686e-02 8.3588516314978129e-03  1.7114956990539085e-02 -5.8521286174379683e-02 1.0439121822049272e-02  -1.5497778538752435e-02 -6.8184227852391963e-02 7.8914357352135953e-03  -1.2940552276786669e-02 -7.3466825551251447e-02 7.5600029845171001e-04  -1.8698708977196811e-02 -6.7105841796643681e-02 1.8254403664946972e-03  -4.9708535599205628e-02 -5.9331702399940782e-02 -2.1724911000974314e-02  -5.9698415675535070e-02 -4.3738196833628236e-02 -1.9057660512204581e-02  6.0131937030958212e-03 -8.0606221412377721e-02 2.3519635300050883e-03  -1.6324664258430554e-03 -7.9675988108779766e-02 -5.1956614009099683e-03  -1.8006084601991893e-03 -7.1404136867001602e-02 1.5407634543095707e-04  -2.5752230912370708e-02 -5.1684936944310755e-02 -1.4432657415536112e-02  -3.1308449372743553e-02 -4.7689703870915853e-02 -1.5314709148017398e-02  -4.0125803251524872e-02 -5.4706703416379031e-02 -1.2135953874531180e-02  -4.2592375014802633e-02 -5.2295844357143087e-02 -6.5784212134769723e-03  -5.1080813640476619e-02 -7.9423209208333873e-02 -1.1153835618533114e-02  -3.0256596120125771e-02 -7.8042697231410885e-02 -2.8758327562818493e-03  -5.1513450064553573e-02 -7.9146298702153478e-02 -4.8661080051119448e-03  -3.4265754840236570e-02 -6.9526154775932117e-02 4.3793586485845082e-02  -2.7703564026982361e-02 -8.1360075493310258e-02 3.5037396516272544e-02  -4.6667475058650695e-02 -7.2004720754066567e-02 3.4467203741245039e-02  -4.0142602163679451e-02 -8.4915234594180558e-02 -1.6738528282545476e-02  -8.7973724448288521e-03 -9.4174996426947183e-02 -1.2793911888682051e-02  -9.0021936837687694e-03 -9.1843899519227459e-02 -2.0833682918673303e-02  -3.2629031019957268e-02 -6.2972479210734719e-02 -5.4802385083021251e-04  2.2833622648722737e-02 -7.3983775392316639e-02 2.0570490983967619e-02  2.7468833275099490e-02 -8.6766220703951527e-02 2.3151676624361371e-02  3.2227926002055929e-02 -7.5298964058386333e-02 1.6736201317247852e-02  -7.8483069611118936e-02 -5.0035491063687834e-02 -1.8445163421628961e-02  -5.7157534962636695e-02 -7.4065995829312198e-02 -1.9061771870520609e-02  -6.2058253328684330e-02 -5.4393251957524022e-02 -1.7762509666726458e-02  -6.6749202539660768e-02 -6.0203131646678773e-02 -2.7876301029869519e-02  -7.8237472269040501e-03 -7.9521406694095340e-02 1.3535834361430063e-02  -9.7943200892448793e-03 -9.3586056292880124e-02 1.2105845129130469e-02  1.7171530781395338e-02 -6.8864661861738619e-02 4.1534979506219673e-03  1.7835981984877045e-02 -6.1097283596655630e-02 2.8940768892292915e-03  6.0194335728238173e-02 -7.2188436792213415e-02 -2.9163040298314066e-03  -4.4045515941800020e-02 -6.4322977919118882e-02 -1.4909318848427043e-02  -4.4517019948567320e-02 -5.1786956525026698e-02 -2.6341963434937405e-02  -3.9856079410211617e-02 -6.3236877917444867e-02 -3.1177458035308674e-02  -3.2078089418700863e-02 -6.5356672339197550e-02 -2.5633918712534048e-02  6.2108461341809688e-02 -4.5034558944746443e-02 4.2959821369875938e-02  6.2359673670632082e-02 -3.9762563831194753e-02 3.0436532914189504e-02  6.1505752319354186e-02 -5.7227532783010848e-02 3.6193318211036503e-02  4.8830135386436609e-02 -4.5050168762906115e-02 3.2598370366910052e-02  -3.2239358342271138e-02 -8.5885679631889783e-02 -2.3217997526881362e-02  3.0520613845538159e-02 -8.0492030459802646e-02 3.3551242161102147e-02  4.9977079091658369e-02 -7.3205767972744612e-02 -2.7479744513408753e-02  3.1750916505377133e-02 -7.1239365413601874e-02 -1.7626197417188846e-02  4.1142072339924285e-02 -6.0493831745693394e-02 -1.8839644622853965e-02  2.8051757579859664e-02 -7.2502646693808251e-02 -2.4206020911358664e-02  -3.7818087495580743e-02 -7.0138890942048615e-02 -2.1250927429459252e-02  -6.6874746623030307e-03 -6.9827392211786826e-02 -7.2530648043914901e-03  -3.5736588099713456e-03 -6.4198769505184328e-02 -2.1562658965102186e-03  8.3490404967213614e-05 -6.2734298682818962e-02 -6.5821173472369226e-03  -6.4092926006643000e-03 -6.1707072872871846e-02 -8.4708557682422903e-03  6.1323925922484425e-03 -5.5991451333057267e-02 -2.3253613457729139e-02  9.0262896262771793e-03 -5.8416944150518790e-02 -1.9621177003608190e-02  8.6715624135755044e-03 -5.1675193974749546e-02 -1.9666435462437164e-02  2.5524969719967093e-03 -5.2309962885942612e-02 -1.9518801766102153e-02  6.2408903140995682e-03 -7.0663637144370919e-02 -5.1041333186017650e-03  1.6786868725285155e-02 -7.2811295990565558e-02 -1.6754848075125723e-03  1.4081743130069159e-02 -8.2019916114347752e-02 -3.7743634603213359e-03  5.3657783164282435e-02 -5.0884161799625682e-02 -7.2106426178485733e-03  4.1127031295347470e-02 -5.4457019601595026e-02 -8.7326338904852169e-03  4.4143463924882415e-02 -5.4371203505966907e-02 -3.0302537688841327e-03  1.6597692624600240e-02 -5.7185130282719064e-02 1.2677599884064210e-02  1.0410989150407465e-02 -5.6121286122415098e-02 1.4621032538949669e-02  1.1468522948003093e-02 -5.9318393633416018e-02 1.0593549442257402e-02  1.1765471023551971e-02 -6.2330335954660421e-02 1.5058564643692469e-02  -2.9752406692714919e-02 -5.3067830789361982e-02 2.0098590433566800e-02  -2.2233519918447520e-02 -6.0307172561760505e-02 1.7113520154876723e-02  -2.1681519637184080e-02 -5.2256756533584629e-02 1.6126692131311540e-02  -3.0424895434252419e-02 -5.6017337678100090e-02 1.5452471359574829e-02  3.0374544476614113e-02 -7.5411955358990590e-02 -3.4933898498828737e-03  1.2630808304348233e-02 -9.4573848956639756e-02 5.4696181192790613e-03  2.5423271893732301e-02 -8.9819156373453043e-02 1.4352555542565587e-02  -4.0575398319042631e-03 -6.2542964244314631e-02 -1.6966731581985084e-02  -7.4328012278685580e-04 -5.9128382428681930e-02 -1.3049233093476645e-02  6.0079379704408662e-03 -5.6144168111516589e-02 -1.5975761110941476e-02  -7.1428021799049813e-04 -5.6369641529128663e-02 -1.5746171582942572e-02  3.1614968635741064e-02 -6.2756215635973028e-02 1.8629960371636198e-02  -2.2625758462710876e-02 -6.5183374502891772e-02 -2.2200463030050410e-03  -1.9301490252390599e-02 -7.1876732971018514e-02 -3.3092411105777970e-03  -1.1426667846411956e-02 -6.7717523073343264e-02 -2.6733080219498531e-03  -1.8149773602247555e-02 -6.9469861622190918e-02 1.5459810729516325e-02  -1.7773696300237982e-02 -6.3761608072489984e-02 1.1123652345559528e-02  -3.3862828770188599e-03 -6.8481921798561149e-02 1.2114059882497304e-02  -3.5398524701618604e-02 -8.7652989537867071e-02 1.0909523692959456e-02  1.3628540295050657e-02 -5.9447258541071309e-02 -1.0258502033722054e-02  2.0433300866311680e-02 -5.6529831990552712e-02 -1.1637806670508073e-02  3.1744968370445492e-02 -7.2361941782857653e-02 2.7820519897514876e-03  -4.6049495858707441e-02 -7.2677144607966107e-02 -3.4388769535577374e-02  -2.8485140375148675e-02 -8.2222367757510254e-02 -3.2795466733468545e-02  -2.3324454036644338e-02 -7.1776124980174702e-02 -3.0752013103724433e-02  -1.5721896372968489e-02 -7.1298631417666389e-02 2.9807243124083272e-02  -1.4499468343918938e-02 -5.9897355456634008e-02 2.8374456939078495e-02  -2.2359088690757291e-02 -6.8576173087977255e-02 2.3691698095145614e-02  4.4225007913720346e-02 -6.4484802514618147e-02 1.3298690254811953e-02  3.7545666420398804e-02 -5.9209357126074232e-02 1.3943946648748899e-02  -4.6669382740962412e-02 -6.7312421476579093e-02 -1.0327730583882677e-02  -2.4847305618716019e-02 -5.1127720869507391e-02 -2.3479243763126611e-02  -3.1192183000221609e-02 -5.4272356774169903e-02 -1.9302347490159313e-02  -2.3495233477728007e-02 -5.4122201039673044e-02 -1.9759372085430243e-02  -2.6332198175393711e-02 -4.5278047037154275e-02 -1.9521277139735158e-02  -2.3898008576771004e-02 -5.9187700992149331e-02 7.5893737101643481e-04  -2.7294384777350418e-02 -6.2306318060983565e-02 2.3283899969788473e-03  3.1689664584548839e-02 -6.5853225545678962e-02 -1.0189311187237027e-02  3.6944953277296161e-02 -7.4047658378820644e-02 -1.2827861052983745e-02  4.6971959322915632e-02 -5.9982888658663414e-02 -1.4409801796780149e-02  5.2984992091994948e-02 -6.3215279317039505e-02 -1.0864914330000393e-02  1.6984784484628420e-02 -6.6388314403663176e-02 -8.3414105394811391e-03  2.0130788746131813e-02 -7.0904761220927273e-02 -1.3295901495041227e-02  9.0901971256882874e-03 -6.2176644917957782e-02 -7.0361959773683324e-03  1.9140550878373470e-02 -5.5846301375799927e-02 1.9139557536263212e-02  1.8120167004047082e-02 -4.8993107436648566e-02 1.9228799292493888e-02  2.6124163937127479e-02 -5.1834468902054683e-02 1.8800476818813933e-02  2.2592100920597914e-02 -5.1272321381709278e-02 1.6160313053021565e-02  6.2618475599882182e-03 -6.3716933396316525e-02 -2.9934996863996656e-03  -3.2962723852827128e-02 -7.1040512032828185e-02 2.1623621986031172e-02  2.9023982022589621e-02 -8.0910376948680793e-02 -3.4385419035461370e-02  3.6236610764290918e-02 -6.8688443009183572e-02 -4.2271468527015563e-02  -2.2856028689350220e-02 -6.4854267622394365e-02 -7.4280484379035915e-03  3.2907892283779043e-02 -6.4264394444715461e-02 -2.1406124104802874e-03  4.5000057323307099e-02 -7.1846249108091786e-02 4.7218760685364258e-04  -5.1570574221984980e-02 -7.4844141347252896e-02 2.5078504316912761e-02  -2.9556644227715492e-02 -8.5758486527445429e-02 2.7274265086526271e-02  2.7338028191526195e-02 -5.6861885145034270e-02 6.3577822834768385e-03  2.7782610275012280e-02 -6.0725943407222614e-02 1.2200264332508618e-02  -2.0441903411399193e-02 -6.0401747251861614e-02 3.8825721423802377e-03  -2.6457523100798297e-02 -6.1894321867945808e-02 6.2385637413225233e-03  -3.1168701424710139e-02 -5.5792136805809092e-02 2.1356070119661428e-03  -3.1385382183558144e-02 -6.3335629559021681e-02 -1.6812570561479806e-02  3.6358584070979520e-02 -4.4214488922912763e-02 -1.5225603931813667e-02  3.0888488201498174e-02 -4.8513966884882707e-02 -1.4846054529001104e-02  3.6015754167602457e-02 -5.0965817270277304e-02 -1.9553584198808684e-02  3.0318895991795436e-02 -4.2133176014579360e-02 -1.9861352880542950e-02  -2.0410996807771250e-02 -5.5386023463386135e-02 -1.3410515380676193e-02  -1.8110139446243449e-02 -6.3674578666589168e-02 -1.3482111080900510e-02  -2.5608197280374577e-02 -5.7586648180802745e-02 -1.5886323091001062e-02  -1.2128240281594711e-02 -6.1657185145780675e-02 -1.5687381294662885e-02  3.2998321396096215e-02 -5.6644474072749584e-02 -1.0709181367664284e-02  3.2991197422264806e-02 -5.1940082714212507e-02 -7.8248258732483977e-03  3.6256709743611948e-02 -4.8128865651286545e-02 -1.1481565271676784e-02  2.7220181428483217e-02 -5.4695648584486133e-02 -1.0055389153234459e-02  1.4412218091495314e-02 -6.1864918623232679e-02 -4.0018718107486433e-03  2.0136843460282911e-02 -5.9869003503290823e-02 -1.4170809176925797e-03  -1.3960199601717134e-02 -9.3339387625453435e-02 3.2592309617219390e-04  -2.0156063706877284e-02 -6.0677254663413324e-02 -1.9522927171642127e-02  -2.2052726790404920e-02 -7.4169941980116103e-02 -2.0297962233447223e-02  2.3124154074140923e-02 -6.3640164758158382e-02 8.7980355898816366e-04  5.5272617278288971e-02 -7.3356959709090799e-02 -2.0153251049471896e-02  6.6410539126660881e-02 -6.4097185524448916e-02 -1.5404949012264961e-02 