<?xml version="1.0"?>
<VTKFile type="UnstructuredGrid"  version="0.1"  >
<UnstructuredGrid>
<Piece  NumberOfPoints="513" NumberOfCells="2037">
<Points>
<DataArray  type="Float64"  NumberOfComponents="3"  format="ascii">-0.9260063084614851 0.3756723916478909 2.088494690531251  -1.215387188971444 0.5119852676208858 2.211144537160126  -1.169199657083873 0.3285258581972214 1.959879554366241  -1.323900903417153 0.1968728161777803 2.29048176525354  -1.65102550751847 -0.5853418105724925 1.000443999264721  -1.972717401737126 -0.2770048687796395 0.928821562964615  -1.909838062722855 -0.5607198352585883 0.7758128115671631  -1.94654710247373 -0.4397063489256637 1.212904324282488  -0.9656126141925141 0.2451078993645466 0.903476229672846  -1.307273153197141 0.04102778345962579 0.7482857790902816  -0.9842502912171535 -0.1599094768274606 0.8684447600518961  -1.249215610799177 0.2430717103564773 0.9671430603142159  -0.9999937435268486 -6.352303793224264e-05 1.579944513727601  -1.312522004451318 -0.1514771375360489 1.769733720506073  -1.219701320019046 -0.256368583217724 1.513705607402347  -0.9710382679627432 -0.2272219158894408 1.66365709242607  -1.152564308322334 -0.6146102306519087 2.290519749049988  -1.112536592270995 -0.4970888852843044 2.032597829790319  -0.9411061816656194 -0.3258947806828741 2.338450351231977  -0.8361908746458244 -0.5467373724377904 2.130302338675527  -1.130289610535039 -0.7323124340292029 1.277776118524968  -1.266766286138908 -1.008906445544718 1.063624260447531  -1.483646847244597 -0.7451701819327663 1.284945495695263  -1.362258947965439 -0.6597119788061743 0.963947159543588  -1.153565928215088 0.3961550794954058 2.777688352315749  -1.28765668591996 0.113830202492347 2.707337524720061  -1.168488944387141 0.3617291064365978 2.501046815526986  -0.9850810122422609 0.1514750247149763 2.727173728961688  -1.009379236606645 -0.7732337977636983 0.965491390307064  -1.296220627873219 -0.6472349211577371 0.7217461812114134  -1.188984052332926 -0.4254961644111375 0.7718489876806194  -1.235655536796483 0.3433994754859898 0.6946751998039692  -1.305299513639754 -0.2617408950762999 0.3238781852583938  -1.54815647609857 -0.2653476145938544 0.22261107454997  -1.583912438798967 -0.464312102321836 0.39108120278089  -1.473428042386052 -0.2606991630884039 0.6547314839504961  -1.252208718574231 -1.255676782608476 2.240162865292683  -1.567305757386662 -1.227670183009062 2.416022748715736  -1.427887152445046 -1.397552244662979 2.055194890811689  -1.427887152445048 -1.397552244662976 2.512760650241201  -1.664910923673525 0.432614917869194 2.357777735902025  -1.922341592596459 0.5195012212131185 2.489821363404443  -1.928305028540357 0.4998424074987824 2.165087777197687  -1.970560222047508 0.2989070817250175 2.341044639907967  -1.98675399845975 0.1344889105926879 0.5313495212184398  -1.661653823734134 0.03079869070401731 0.7297828569381692  -1.62407752486137 -0.06307331489345444 0.372839708262396  -1.760011020697118 0.3037424123478172 0.5106187273310807  -1.884217526686909 -0.6451794236453519 2.491823020778211  -1.9459936380826 -0.4415308765076 2.345924563952366  -1.957396875122214 -0.4039394418361448 2.563423834151393  -1.699000340662239 -0.4428050437445591 2.467721064216187  -1.121818190098454 0.6061936883416127 0.8266300311499966  -1.433939384560817 -0.4238274762576875 0.8699118466181608  -1.573784807892008 -0.5805046025967722 0.7101690556525573  -0.9411061816656194 -0.3258947806828742 0.3551781620400321  -0.9941832724223048 -0.05905822619464331 0.2807537968460868  -0.9941832724223048 -0.0590582261946434 0.4972761553387438  -1.402347010012292 0.4920558751288001 2.761988400613965  -0.8082330127850601 -1.503186699293603 0.2357649048814419  -1.017455922484892 -1.418005519279919 0.3938334665567997  -1.029412160275252 -1.706623914158315 0  -1.127801783749323 -1.649265634533138 0.2920578331429886  -0.9908701925345239 -1.263496194925009 1.056104050844839  -1.062257142436844 -1.011050045281292 0.7321183252305898  -1.004926215744018 -0.9717965485057757 1.169910315842186  -1.335337400902062 -0.7860545710461491 2.550460757321372  -1.593615622573879 -0.792032947646325 2.520412296593137  -1.588912883050472 -0.7889275903798316 2.791355739196442  -1.564334158058351 -0.5889188034608139 2.683879869136377  -1.581290903713539 -0.2970897441185306 1.048369966819071  -1.743120307703398 -0.06304948615626116 0.9919043794899579  -1.680230049749189 -0.1711975444313317 1.357373068767943  -1.462974575698371 -0.09060976069308574 2.759414478044269  -1.303404570440123 -0.06724211453096629 2.461721022665841  -1.249679095813348 -0.2601979459792874 2.727966810990917  -1.441186560264091 -0.3492890134375373 2.492791099351328  -1.194979136873971 0.9101429222428052 1.043890337845854  -1.280339600673329 0.8142753281091926 0.8082459380031127  -1.501397742985334 0.8632673176568763 0.9405261858769782  -1.219162746384527 0.6233008326600873 1.084043049722833  -1.382319199378073 -0.5907418376753506 2.013010320636827  -1.06657240619417 -0.7663622070196903 1.947062030830022  -1.223001019254242 0.1550573634103403 1.409304678032743  -1.513981671922467 0.06346738925087642 1.553369403795612  -1.334551029363847 -0.1015244881255466 1.294613982702496  -1.262475507549776 0.3869775720524342 1.219340501184618  -1.611647052306065 0.3554398012864973 1.316835097312015  -1.4817894223598 0.3490363229274818 1.100724046177009  -1.464059630891175 0.1387576624741818 1.307060864680669  -1.67463157484072 -0.1501708347366142 2.36216375168643  -1.632864458372463 -0.4191082906465651 2.101189180998846  -1.995082405095516 0.04992917896255156 2.443660382031406  -1.66755928569038 0.1812450342360503 2.190262165414482  -1.766156086691165 0.2297663557929015 2.49393410343154  -1.757364381994009 -0.05151822786741123 2.143385105486461  -0.9332399319050438 -0.8329507000756384 1.430972631249643  -0.7895298084505613 -0.6066740318757129 1.5286319452466  -1.038612370612227 -0.713293946212182 1.647778346967149  -0.8922614140538092 -0.9598247585280195 1.721329349967923  -1.82404655335021 -0.8097298537821912 0.7258268606511862  -1.837177028272594 -0.7851644630181105 1.125614227511518  -0.6229198099826866 -0.7761972429176593 0  -0.7011924285577662 -1.116007026656368 0  -0.7973461611764788 -1.031989847821273 0.3007238726898137  -0.9041024360369281 -0.8914374799329257 0  -1.490212894739336 0.1024283258350408 1.048555704281198  -1.269047057448465 -0.1238640230096709 0.9996125339283918  -0.9941832724223048 -0.05905822619464333 2.677331707366085  -1.966488155710956 0.34025146506968 0.3195083575913187  -1.718039026733599 0.4021564729060674 0.240102687862987  -1.901028395336979 0.5897614165975682 0.2715355899294156  -1.909838062722883 0.5607198352585618 0.4685414821717258  -1.215914184486183 0.0722052841382636 1.152181808573573  -1.550860895813692 0.7743665571272234 0.6777793944735439  -1.73350680003723 0.9791178182666499 0.7418357746042745  -1.829625738534411 0.7992919324575475 0.5658120083177366  -1.871938515486758 0.6856578988148563 0.9111158509006674  -1.465055270517109 1.000012001635756 1.147846198214053  -1.548706672354905 0.6786497599334139 1.233793657262481  -1.476425729496703 0.2066045208918142 3  -1.630123886592809 0.375451745420793 2.685459653224462  -1.773980371139813 0.2218805325960953 2.782707204985573  -1.693466300542116 0.2279811513195173 3  -1.366474266489984 -1.047771008361796 3  -1.221175608913794 -1.041455249973299 2.756322037536186  -1.221038484335588 -1.19820485525533 3  -1.500136972962329 -1.30951558363957 3  -0.5620455767304046 -0.8261554350557641 0.917008705134106  -0.8110304134403988 -0.9556128599400331 0.8778429181909299  -0.7431286293629809 -0.6632140321853688 1.14105304140432  -0.7098319736689174 -0.7037861245388741 0.7769317489877905  -1.391147011987356 1.06525700924507 2.756869952670498  -1.260017126109219 1.174917670010183 2.427905230488051  -1.507328219677138 1.300753024164202 2.713336764402187  -1.165230715369792 1.205390575913933 2.689956132617993  -1.721773787789576 -0.003935568816488877 2.78688486891622  -1.995734852768018 0.043304766574551 2.718583275510576  -1.983929507246338 0.1631664511407618 3  -1.803507605944916 -0.0630922066319478 2.558029022606106  -1.974816562346712 0.2556917334395575 2.654325372778719  -1.089812399683726 -1.021243261100018 0  -0.8987805921620252 -1.319845098533642 0  -1.116895818781933 -1.161934819761162 0.370270074731517  -1.546861241560049 0.5688588129640406 0.3522510134588102  -1.605968895026453 -0.7390282026009384 0.4851812485290803  -1.840981367244331 -0.7780470454081483 0.3436477599646534  -1.73350680003722 -0.9791178182666684 0.2877286554780817  -1.73350680003722 -0.9791178182666687 0.5388107162882877  -0.9270005828501531 0.3723947082499905 2.361375773110511  -0.9850810122422609 0.1514750247149763 2.510697486762824  -1.465174940095696 -0.9338008255969225 2.344198929805061  -1.550999611374352 -0.6339550912555464 2.31831935342786  -1.365668187016484 0.9299040139860805 1.367410651434479  -1.364828507948321 0.5898346271429308 1.50358242883754  -1.561976378311393 0.7892151608032022 1.509996634791825  -1.39691577300538 0.8911861814548782 1.730336489180808  -1.447303353351953 0.3517831149908241 1.964888327648917  -1.618075865260566 0.4074476862232218 1.663634259704036  -1.681292409562479 0.1034354428021357 1.853486641591569  -1.722294987833647 0.4396160314857099 1.971911705062555  -1.600076204029122 -0.7509059370788016 2.093815082986296  -1.891214363412786 -0.622113944100068 2.230867755903939  -1.777784591742112 -0.8962798964221964 2.211179134608378  -1.275597160088317 -1.167869433059521 0.6132159840926475  -1.199121442982144 -0.9273700183312629 0.5130642412362458  -1.51625229223465 -0.8815743425805951 1.041474482512132  -0.5584414848654666 -0.8291132368095167 0.6434751802119618  -1.439210747037442 0.8722278955756767 0.2966160678140998  -1.679741028279417 1.079706502283821 0  -1.787272571795044 0.8785291342494774 0  -1.73350680003723 0.979117818266649 0.3897882420311979  -0.9408568860267614 -0.326716598267604 1.46112762190211  -1.144618219240531 -0.5094773
[...]
<PointData  Vectors="f_18"> 
<DataArray  type="Float64"  Name="f_18"  NumberOfComponents="3" format="ascii">-8.6836713717982641e-02 3.6142972672523713e-02 -1.6991843969871013e-02  -7.2819269272225776e-02 3.0763462245881581e-02 -1.5618929261556454e-02  -8.1165119060039065e-02 2.3425619971074597e-02 -1.1517103000969078e-02  -7.6790932856272712e-02 1.2231927784675396e-02 -1.7132791781607606e-02  -6.4639584176005474e-02 -2.1869233325721278e-02 8.8305566536612361e-03  -6.3074009280896862e-02 -7.7078107287768842e-03 8.4741740568032714e-03  -6.0136114433763897e-02 -1.6960320346905557e-02 1.0673210028709907e-02  -6.3138544227121909e-02 -1.3507677256019875e-02 4.5478878895018988e-03  -9.1834175130832182e-02 2.3289204316543282e-02 1.7163939748201993e-02  -7.9348786481912931e-02 3.2560070586178306e-03 1.6900607567206804e-02  -9.2730776536119983e-02 -1.3189728357960890e-02 1.8809681752278127e-02  -8.0265525552190589e-02 1.6159370227022230e-02 1.2930196415651057e-02  -9.5602896893381209e-02 9.9162245383248589e-05 -2.0956351850000489e-03  -8.0877923843489477e-02 -8.6714937477919331e-03 -5.9911720900107180e-03  -8.2252551592409601e-02 -1.6570919272686710e-02 -8.7081535122468515e-05  -9.3544159383030137e-02 -2.0422249489400180e-02 -5.0362928155658444e-03  -6.9672893644453865e-02 -3.6210960026198384e-02 -1.7792644502775640e-02  -7.6806412219118325e-02 -3.3955998367637595e-02 -1.2716243831598809e-02  -8.7106074873113754e-02 -2.8380032855070375e-02 -2.3648305217772274e-02  -7.8483069611118936e-02 -5.0035491063687834e-02 -1.8445163421628961e-02  -6.7219798037157871e-02 -4.2989014816362019e-02 5.3171438684169285e-03  -5.6022495507491353e-02 -4.3530024780736712e-02 8.0177161993068864e-03  -6.3658298133544025e-02 -3.0768908395549230e-02 4.0524937776887458e-03  -6.6895706257107015e-02 -3.0950348087061378e-02 1.0840027534441316e-02  -7.1388574082539180e-02 2.5057830043415410e-02 -2.9745099936392280e-02  -7.3836191498617518e-02 6.9040432590880855e-03 -2.6451411790593928e-02  -7.6485682026695923e-02 2.4158894014917161e-02 -2.3746192542738836e-02  -8.5212149497660761e-02 1.3304483310080661e-02 -3.5653260779241504e-02  -6.4970546722790748e-02 -4.9057461842107235e-02 1.2637820199400218e-02  -6.6920987650177288e-02 -3.2127190706184847e-02 1.5870117193230514e-02  -7.6443515065149223e-02 -2.6994918043958569e-02 1.7253843791192942e-02  -7.6799544169366962e-02 2.1706079871861218e-02 1.8641871342847810e-02  -7.2268453916957659e-02 -1.3310587292664993e-02 2.5592871017944621e-02  -6.4199226565951992e-02 -1.0177827166931983e-02 2.2885217794124554e-02  -6.3023254734528925e-02 -1.7694330196544577e-02 1.9155378320949559e-02  -7.1953675836012670e-02 -1.1896535650971556e-02 1.6790930211812619e-02  -4.6771036844289883e-02 -4.5547781920945565e-02 -1.1877354082498412e-02  -4.7557843426160762e-02 -3.6444497456245797e-02 -1.2177342838898037e-02  -4.5405132062235509e-02 -4.3179524133013007e-02 -7.4213179868115129e-03  -4.2465591679525481e-02 -4.0414309502586628e-02 -1.3205857041909288e-02  -6.4819453535200966e-02 1.7323170717702299e-02 -1.4006557849081032e-02  -5.8359342838191670e-02 1.6226209491045598e-02 -1.2681873062699113e-02  -6.1012411627653994e-02 1.5937608681263444e-02 -8.8271633206549426e-03  -6.0752691573260333e-02 9.5330970005463103e-03 -1.0798534773903945e-02  -6.0468204466611490e-02 4.7755352917035754e-03 1.3595097424531469e-02  -6.8972505091326519e-02 2.0888281165590793e-03 1.3783382144963186e-02  -6.6191502609751568e-02 -1.7436147583307614e-03 2.0065663705473847e-02  -6.3069472435235044e-02 1.1590190476200569e-02 1.5682849817115391e-02  -5.6452057850175610e-02 -1.8452304286069851e-02 -1.2710989480039478e-02  -5.9774565256092302e-02 -1.2889638527852191e-02 -1.0860154611259512e-02  -5.7354630042708701e-02 -1.1248936136912741e-02 -1.3368942046446701e-02  -6.1977948593337343e-02 -1.5450730534097725e-02 -1.4808952763059224e-02  -7.1871047225731122e-02 3.8720875827196501e-02 1.6024714362819492e-02  -7.1310193276975478e-02 -2.0321361671460557e-02 1.2730020165899343e-02  -6.4496863227504406e-02 -2.2609961384128303e-02 1.4055874826348461e-02  -8.3158624825415944e-02 -2.7232212521833259e-02 3.3696084112128488e-02  -8.6852654577273827e-02 -4.5755057362664000e-03 3.5201580048949493e-02  -9.0599182265686667e-02 -4.2679567517065224e-03 2.9128968342159518e-02  -6.3116809966489232e-02 2.2834617719454369e-02 -2.3275847191363615e-02  -2.9752406692714919e-02 -5.3067830789361982e-02 2.0098590433566800e-02  -3.7051175349579323e-02 -5.0293402892434703e-02 1.7707133258684667e-02  -2.8117614772578969e-02 -4.3915225958665420e-02 1.9614742338467790e-02  -3.2926510141434003e-02 -4.5991706334413400e-02 1.5838230966193387e-02  -4.4932413899204875e-02 -5.5170805656675204e-02 8.4087082368080254e-03  -5.3482840105994196e-02 -4.9964900725986944e-02 1.5531636246927310e-02  -5.6372249823214454e-02 -5.3577005520253261e-02 7.3663574101516839e-03  -5.8715258429034405e-02 -3.3945467184667240e-02 -1.8993390507053589e-02  -5.6668744488735219e-02 -2.7288834383699785e-02 -1.5475219663208467e-02  -5.3238757290395351e-02 -2.5652963698489361e-02 -1.9343175274874076e-02  -5.9252808414837148e-02 -2.1593880971336105e-02 -1.9270546007130056e-02  -7.0817439692760276e-02 -1.2267771556290139e-02 8.8238359302037234e-03  -6.8113394467603172e-02 -1.7880263491006799e-03 8.9108212238593765e-03  -7.0461598530701483e-02 -6.6457921168466463e-03 3.2640173950355426e-03  -6.7426624324505788e-02 -3.1613904162181984e-03 -2.3331064477511727e-02  -7.6306556377643275e-02 -3.3883743051469927e-03 -2.1216285467601639e-02  -7.2103405261863443e-02 -1.4355466514028062e-02 -2.7205318531340852e-02  -6.8685641556572571e-02 -1.6000012111849572e-02 -1.8944275740627119e-02  -5.9528089033806658e-02 4.5330461148518235e-02 9.6324407462359939e-03  -6.1981117732171194e-02 3.9355129178807048e-02 1.3609419577979827e-02  -5.9439356416805408e-02 3.4083873367287049e-02 9.4736357285268268e-03  -6.9939628348520910e-02 3.5841440511944142e-02 9.7650521936189887e-03  -6.8496713959345257e-02 -2.8074068750899281e-02 -1.0118826298285885e-02  -6.5712316129110881e-02 -4.6147889015800414e-02 -1.0363721932990486e-02  -8.3802806081253692e-02 1.1188619699934864e-02 2.8527313446120922e-03  -7.5119531474091561e-02 4.0340620958624271e-03 -5.9529588269818204e-04  -8.0450917309439221e-02 -5.6716036134284989e-03 4.8515813813573725e-03  -7.7811995688698607e-02 2.4315760760423973e-02 6.9282413007022616e-03  -6.9963042429633818e-02 1.6096316571743645e-02 3.3770952310425094e-03  -7.2426772023993544e-02 1.7630311947908980e-02 7.5519881131097975e-03  -7.5650040469880817e-02 8.0198627585855043e-03 3.9105255873893036e-03  -6.6964352696124968e-02 -5.4840901455673217e-03 -1.3844061376580920e-02  -6.7124815874150118e-02 -1.6314652104287067e-02 -9.8216253821202474e-03  -6.0904534591077308e-02 1.9915242202206626e-03 -1.2016035360756532e-02  -6.8900066910976748e-02 8.1759697060484037e-03 -1.1203916404872302e-02  -6.3218551803336159e-02 8.5140720689632007e-03 -1.5283186870283672e-02  -6.7224990584769023e-02 -1.3308322337065826e-03 -9.9198997836396040e-03  -6.2203512954866404e-02 -5.4885693231189261e-02 1.3152053304009901e-03  -7.6471018483289799e-02 -5.7255603803848636e-02 -2.6221267255859134e-04  -6.8686572652125688e-02 -4.6284220152979762e-02 -3.6808998076508477e-03  -5.5613693856247752e-02 -5.7842741987293708e-02 -4.9256937955443735e-03  -5.6777645048796614e-02 -2.3942959647594454e-02 1.0829898981453798e-02  -5.9242698229203146e-02 -2.4589873971572373e-02 5.8763087096038889e-03  -5.0006757612713872e-02 -6.0520766531671384e-02 4.2995413236237304e-02  -3.6214520855319288e-02 -5.4958523438970910e-02 3.1589013681948316e-02  -4.5822730914697636e-02 -5.7066413666016544e-02 2.6413924416623557e-02  -4.9669405626415267e-02 -4.7011653621255964e-02 3.3059808777464395e-02  -7.5113496757039558e-02 5.7400091601606659e-03 9.2291793859763278e-03  -8.0513339472983420e-02 -7.8204944344904461e-03 1.1862414315300430e-02  -8.7123117377903875e-02 -4.0831696791796381e-03 -3.3811313297833281e-02  -5.7383883535981332e-02 1.0340595732587197e-02 1.5908469263779222e-02  -5.9561479289975024e-02 1.4188078759247795e-02 1.9713190362467412e-02  -5.4857592268266933e-02 1.7604904899872216e-02 1.6427644131485397e-02  -5.7789127787536948e-02 1.7289177978583637e-02 1.4059584510170173e-02  -8.4848311573500007e-02 5.9336747837526660e-03 8.6281753853957553e-03  -6.0036527288620287e-02 2.9783465747076705e-02 1.4002706162311590e-02  -5.4872564523683602e-02 3.1029006143749146e-02 1.0568011397823207e-02  -5.5806492169212518e-02 2.4343390340871893e-02 1.2757094803379488e-02  -5.9806831398691702e-02 2.2061606278843026e-02 8.3092090088335048e-03  -5.6648863105093240e-02 3.8488593658455930e-02 6.1373107116437023e-03  -6.4855682409282384e-02 2.8693025010730941e-02 4.8629531937403559e-03  -6.1133119338096835e-02 9.1930117414613741e-03 -2.6906929478330642e-02  -6.2019960768533951e-02 1.4517044348157565e-02 -1.9431003928786904e-02  -5.9088503366860640e-02 8.0673621397893830e-03 -1.8901224294129996e-02  -5.6693154568482410e-02 8.4335164223704549e-03 -2.3099295809193253e-02  -4.5198577438950165e-02 -3.3897127380238909e-02 -2.3005565373982795e-02  -4.8640474552098321e-02 -4.0297870251756122e-02 -2.1404739054681272e-02  -4.1164140909220950e-02 -3.9250751807201771e-02 -2.3369642193677646e-02  -4.0039654303837921e-02 -3.4011017781160162e-02 -1.9496453672683621e-02  -5.2428026761817077e-02 -7.7379644402220032e-02 1.7216328989734242e-02  -5.3446418513991123e-02 -6.1208022362680824e-02 1.5061529224271076e-02  -7.0981772285935302e-02 -6.2422068197741626e-02 1.0947197054619412e-02  -6.6131921493014958e-02 -6.3485410344980897e-02 2.1035422849753301e-02  -4.8609172901017635e-02 3.7103224138428537e-02 -1.9046679215444267e-02  -4.8575889727495686e-02 4.4924767637362376e-02 -1.5119450533591613e-02  -4.3829472225527223e-02 3.7594732273201668e-02 -1.5660081300041487e-02  -4.4540610928106114e-02 4.5767843327162390e-02 -1.9461510777266332e-02  -6.0845971495234533e-02 7.2183254388785115e-04 -1.9656812980742604e-02  -5.6805874671647855e-02 1.7494598596911181e-03 -1.5192995436904447e-02  -5.2847073979763418e-02 4.9978802398628454e-03 -1.9053694901465638e-02  -6.2432409302672853e-02 -1.6209058737342130e-03 -1.5611298758389281e-02  -5.7307940571307059e-02 7.7614029659367582e-03 -1.4881866061442088e-02  -4.5702211268277088e-02 -4.1154347631379783e-02 2.7388315740919190e-02  -3.4253653926029824e-02 -4.8131857417723502e-02 2.5470192374678194e-02  -4.6119809242618999e-02 -4.6079666892641064e-02 1.9706968138829668e-02  -6.1107343386773441e-02 2.2623693013372036e-02 1.9290959101762390e-02  -5.8305630495210405e-02 -2.5859478968274612e-02 1.6208302296645157e-02  -5.4168407544015702e-02 -2.1774729738356501e-02 1.5549800968386488e-02  -4.9962562173492660e-02 -2.6977902208214725e-02 1.6424041590644627e-02  -5.2690139736066156e-02 -2.8742809426973288e-02 1.3332952288284485e-02  -8.4600363785386878e-02 3.5553235660824224e-02 -2.4645659576225491e-02  -8.8733210071784349e-02 1.3371932514294393e-02 -2.9274114561054578e-02  -5.5725581675124446e-02 -3.4322565650522135e-02 -1.3460003431357377e-02  -6.3114794540231015e-02 -2.5084134055404262e-02 -1.3461157390102790e-02  -5.9684612721661930e-02 4.0607864959686053e-02 2.6016842770579334e-03  -7.0126767144933863e-02 3.0201628498512025e-02 4.9331462822346198e-04  -6.2424827220873655e-02 3.1540378191250641e-02 -2.0771044184992330e-05  -6.0340603987186436e-02 3.9219764704919155e-02 -3.9847840017925851e-03  -7.2322091393452456e-02 1.8353082455490794e-02 -8.9998327397083251e-03  -6.9082054575979032e-02 1.7846001436650834e-02 -2.5388965692089904e-03  -7.0087763794118629e-02 4.9236935614273706e-03 -5.9548242146906776e-03  -6.5357289264969323e-02 1.6897726377124670e-02 -7.4877630457878697e-03  -6.1200359718068878e-02 -2.7586745096469228e-02 -9.2999175253609505e-03  -5.9130773401547328e-02 -1.8722084256022283e-02 -9.3972854339802857e-03  -5.6316799468280325e-02 -2.7530026904182194e-02 -9.5630283733603699e-03  -4.9110237829470764e-02 -4.3003394003384557e-02 1.4823164226206678e-02  -5.5903247051679490e-02 -4.1180970507914312e-02 1.8883781820320227e-02  -5.9363943440217469e-02 -3.3092374099232498e-02 8.1604107230581809e-03  -5.1570574221984980e-02 -7.4844141347252896e-02 2.5078504316912761e-02  -5.4388871942090466e-02 3.2889876873275811e-02 1.9993598130807803e-02  -4.5706556938373576e-02 2.8816158792969029e-02 1.9855324315076740e-02  -4.8036384542203790e-02 2.3487986677309437e-02 1.9884582086012154e-02  -5.1330454021285062e-02 2.8928380319272893e-02 1.5171960556396972e-02  -9.0491921008726717e-02 -3.0694404665731097e-02 7.8717755767401592e-04  -7.6135867158492090e-02 -3.3017382342667122e-02 1.4937213147436653e-03  -7.5549871527386098e-02 -2.9424117324455802e-02 -4.5723690918786216e-03  -7.7893298385791496e-02 -1.7814430086993426e-02 -1.5963457477300526e-02  -7.4475763787074600e-02 -2.5055582795555639e-02 -2.3112608056049744e-02  -5.7107941499356107e-02 -3.6726632281435023e-02 1.3466358983104294e-02  -6.5782959887769554e-02 -3.3585284104593132e-03 -3.0992216055647927e-02  -5.7954469995352545e-02 -1.9073542155534952e-02 -2.6635908120173715e-02  -6.4050336056888521e-02 -2.1338795450041657e-02 -3.2425530404022816e-02  -4.5759766582492367e-02 -3.8289646974338891e-02 1.9538187327304571e-02  -4.2720303754314140e-02 -3.8534340598973114e-02 1.5314653519025886e-02  -3.7451014667069335e-02 -3.6565191710961627e-02 1.9457807545894826e-02  -3.7860595045796738e-02 -4.1533899296765639e-02 1.6363588609824120e-02  -7.0363073556671249e-02 5.0048498709714756e-02 -3.4931384007942795e-02  -5.8716417485954124e-02 5.3429405710533076e-02 -4.2506204298598173e-02  -5.5853725409390147e-02 4.0084797252931084e-02 -3.2656880728636539e-02  -6.9757325671277168e-02 3.8049434024659066e-02 -4.2435623192488711e-02  -4.6241195408383458e-02 4.2902548346253393e-02 -7.8186819544651207e-03  -4.8927751789567160e-02 5.1188669037442250e-02 -1.2141656919686553e-02  -5.5099275130778676e-02 3.9444766327337136e-02 -8.2205878796952399e-03  -7.2391388864445683e-02 -2.8145154588790286e-02 2.2757010562003285e-02  -5.3783814209515404e-02 3.6305362708367366e-02 4.6308722516193981e-04  -5.3121948186235612e-02 3.5226911998933408e-02 -5.0791709119016983e-03  -4.8695345553945335e-02 4.3021733459815886e-02 -3.0243129786508773e-03  -7.0484176603189924e-02 1.9787189463093633e-02 -1.3591761609916170e-02  -7.1476797232157455e-02 3.6985656140534284e-02 2.4534374440656120e-02  -8.5285520392385836e-02 3.4297954977460528e-02 2.4637125202873485e-02  -4.1230793150747506e-02 -5.1108062003352744e-02 1.3838065453340098e-02  -6.2382725920941150e-02 3.5483267315275950e-02 1.8489555758345832e-02  -7.0293266162122572e-02 2.2512818496675281e-02 2.5871764929855878e-02  -6.0761145737761584e-02 3.1346554349228874e-02 2.5228487111835670e-02  -6.7821801888031247e-02 2.4150039321201404e-02 1.7975614381805050e-02  -7.5661510580833147e-02 1.8388242232480374e-02 7.9584764047094616e-04  -5.0151054286723437e-02 -3.2359938827108074e-02 -1.9174754799800527e-02  -4.5264495535233172e-02 -3.4212376397026442e-02 -1.5227314472414936e-02  -4.3560865464789315e-02 -2.9105572882027784e-02 -1.9038087421990913e-02  -4.8676320953200888e-02 -2.8689372991045691e-02 -1.5596644156282756e-02  -8.3576538653051008e-02 -4.2592477045360337e-02 -8.9273332732780850e-03  -7.0206242261703147e-02 3.9022322161379748e-02 4.3092044688548124e-02  -6.8408581078178043e-02 3.2437066801146573e-02 3.0987005679446452e-02  -7.6790124642945407e-02 2.1785357185731651e-02 4.2609444841237132e-02  -8.1969182739690893e-02 3.2892709432072079e-02 3.3090982797328423e-02  -5.0986479031321821e-02 -3.6650629982096027e-02 -5.9694005931677846e-03  -5.5406619138290251e-02 -3.1225482911577986e-02 -5.7082439094976282e-03  -5.0671969770040383e-02 -3.5616280360236063e-02 -9.0409197722791587e-03  -5.8118019175324484e-02 -3.7562453506139910e-02 -9.3054869913230254e-03  -7.0177580582987203e-02 -1.4360773821545878e-02 -4.0816733070115664e-03  -6.5035784268178326e-02 -2.1671882973549293e-02 -6.4890884427009831e-03  -7.3891300696904735e-02 -1.6602460027865806e-02 -8.7689612045715702e-03  -5.8903750080270975e-02 2.8512752573038293e-02 -1.7809474792084481e-03  -6.4878811580954696e-02 2.7505453228925534e-02 -6.0692352847736301e-03  -5.3465970741016951e-02 -1.7189640663950012e-02 -2.2642361901049075e-02  -5.6153043936033341e-02 -1.0835105500133653e-02 -2.3242971222709075e-02  -6.0244887630086549e-02 -1.6168284576552526e-02 2.7410183947074011e-02  -5.3812952079850221e-02 -2.1341068692870120e-02 2.4017143416368958e-02  -6.0772267206719834e-02 -2.4881678870143437e-02 2.3581498817626362e-02  -5.7608818474760751e-02 -1.5881859888184701e-02 2.0389693250133335e-02  -6.4211992017655345e-02 2.6862303874599806e-02 -1.1206410358385705e-02  -7.2439078132669213e-02 -1.9912104832583499e-02 2.2721024446079739e-03  -6.6444195954266982e-02 -1.6336875353988804e-02 1.8162673366791773e-03  -6.5266676949803037e-02 -2.4965624507646198e-02 -1.5010735560861176e-03  -5.1437402179482575e-02 -3.0422732269786059e-02 -1.2497631537712396e-02  -5.2469239014036828e-02 -2.3395780102041103e-02 -1.4631089258348058e-02  -5.9359662902148995e-02 2.8045118774997199e-02 -1.4586227677387478e-02  -5.5904841747466981e-02 2.3393752789316300e-02 -1.1968699836252226e-02  -6.7575288898756566e-02 4.4050252738655994e-03 -1.8943954605053041e-02  -5.3233540035640396e-02 2.2699754955337846e-02 1.6071751380220343e-02  -5.3881173472130436e-02 -3.1943413502182570e-02 8.4879515086220651e-03  -5.6035134522863080e-02 -3.1612909806733668e-02 3.2303343486364488e-03  -4.8687366768059341e-02 2.2409630000333945e-02 -1.9165803953498164e-02  -5.1926437069209054e-02 2.7463123251740780e-02 -1.4134583948242477e-02  -5.6669267718037292e-02 2.8773573675286258e-02 -1.9456119263803778e-02  -5.3485233155465266e-02 2.0938870597139347e-02 -1.5407364788993726e-02  -5.3779513781024954e-02 -3.1968935088842534e-02 2.0131081061938956e-02  -5.7666764795511936e-02 -4.3731967200472815e-02 2.5589796147072155e-02  -6.2622058691973195e-02 -3.1378390655895524e-02 1.9708511731510042e-02  -5.1575955858320650e-02 4.8865450027127916e-02 -5.8830429751711606e-03  -5.9308923718762077e-02 -4.4288326728805132e-03 -2.4852380109538521e-02  -6.1262647452147614e-02 -1.0266881630498402e-02 -1.9097708775460763e-02  -5.2342364365410544e-02 -6.9969385800108235e-03 -1.9216012770368086e-02  -4.7749970452358757e-02 -6.6044484607422377e-02 8.5896881695173202e-03  -6.8879290926883774e-02 -6.5433285514259532e-02 4.9324626728684783e-03  -5.2619356622613196e-02 -7.8759299175700889e-02 4.2302481084729171e-03  -5.3978360271418689e-02 -1.7076184841418339e-02 -1.5571665969742800e-02  -7.4323140802887794e-02 5.3250610929957330e-02 -2.8564044922693037e-02  -5.4123186864579530e-02 5.1126864390402024e-02 -2.5712135065577579e-02  -5.7974117009667599e-02 6.6033501578749043e-02 -3.3682902999061008e-02  -9.3848539032310677e-02 1.4857075631223265e-02 8.6770850413988576e-03  -5.3003776641217804e-02 -1.0199461020523532e-03 -1.9184887242704427e-02  -6.0985449313356886e-02 -2.7967313159711657e-03 1.3050165379549483e-02  -6.4873006336722008e-02 -8.9906619415629843e-03 1.6007828418361080e-02  -7.5503818154579988e-02 -3.9402139289307830e-02 1.0589049095718702e-02  -7.9597080371741846e-02 -4.7750208592825832e-02 2.0000342578777072e-02  -6.6562061343163267e-02 1.1135319031626055e-02 2.3045710343577164e-02  -6.0913490137914618e-02 5.2484223669861082e-03 2.0658577405425853e-02  -7.0180875761467490e-02 1.2666590007766472e-02 1.9304651489679830e-02  -8.3960338942974749e-02 -9.7713233935920064e-03 -1.2032874652896076e-02  -4.3320718742115363e-02 -6.1362523701857387e-02 4.2032459552931627e-03  -4.8967513164412099e-02 -4.8805104639332124e-02 4.4901576026114580e-03  -7.4871276020443717e-02 -4.5284054493316357e-02 -3.2219776311316173e-02  -6.6744373507963820e-02 -3.1560056625256190e-02 -2.6535591501143301e-02  -3.9157711616255017e-02 -4.3531188751328970e-02 1.3909983252919783e-02  -5.9853025203771303e-02 -3.0565867226687122e-03 2.0372914589419103e-02  -5.7835769908705072e-02 -3.2542772291388072e-03 1.6063174550453665e-02  