<?xml version="1.0"?>
<VTKFile type="UnstructuredGrid"  version="0.1"  >
<UnstructuredGrid>
<Piece  NumberOfPoints="5665" NumberOfCells="28189">
<Points>
<DataArray  type="Float64"  NumberOfComponents="3"  format="ascii">1.330479506415976 -1.287460848129669 1.794361971982151  1.511744865926014 -1.295371325138672 1.790496652577309  1.489130930515264 -1.32292648516409 2.024925591797802  1.365167048905233 -1.454464995740262 1.992310337141028  -1.528407021560024 -0.1223679279972765 0.2216749016847578  -1.616367675847036 -0.370909658942107 0.1642234085509218  -1.473462720355558 -0.2879607080704417 0  -1.449009243839573 -0.3962807823147068 0.2109175911846373  0.9391469282871734 -0.3323535734909804 0  1.073816135422762 -0.4766029536066579 0  1.189478795785053 -0.3254012404120126 0  1.087972093876657 -0.3146280092357576 0.1329204037260145  -0.8781943570813444 -0.7745618986412175 1.422869427224792  -0.955217320792347 -0.9527184678834343 1.371230704081954  -0.8475093267591888 -0.822455811150119 1.17409325042948  -0.7738664993794891 -0.9627376191636698 1.304604169931725  -0.4990054364240204 -0.8617041259856751 0.2569410986845065  -0.5918748389558864 -1.085175586344858 0.2738074967758538  -0.3688491168294892 -0.9280761262489887 0.3300760424629998  -0.4922428590829268 -0.8653187988822182 0.4241280697214569  -1.512359285644334 1.068376000829444 2.428131023737984  -1.373880728372479 1.138645178772328 2.501427686586783  -1.522712156704078 0.91069105861823 2.495322883648988  -1.338135527099882 0.9610917329772711 2.485363916417126  1.552948987104267 -0.4690157918581085 0.2299086180878376  1.696344945248244 -0.5318575647415316 0  1.686203305208495 -0.6206155169145419 0.1861964470429633  1.511786273277511 -0.6174073964408714 0.1649699662232268  -0.2650593980895871 -1.973893927909151 2.162530214805628  -0.2132214504610662 -1.978999520118239 2.414221083410578  -0.1980098493101548 -1.779169421985235 2.301626736492524  -0.3980072551042049 -1.959196384293901 2.326835988930807  -1.515124839582729 -0.1413239192323957 2.494970903857733  -1.542304936240881 -0.3553446478043817 2.589922535598422  -1.531301083342066 -0.2469406307591743 2.349971252061232  -1.433516621472994 -0.3906533878807158 2.369608260756459  0.3663881372527283 -1.792781858829451 2.129060049891419  0.4455347821504593 -1.78642589163278 2.279974805303299  0.4970821075246674 -1.682461290742508 2.101893222099251  0.3582900037652385 -1.61449655776665 2.169917268594275  -0.08105766249146665 1.51490851366465 2.300580605903318  -0.1264137403891327 1.623832570965264 2.451224456478201  -0.2543581781992574 1.627757969062994 2.308992231366099  -0.3016331384581181 1.536607458103908 2.489088673277483  -1.063576882125053 1.158340932349984 1.567789034934107  -1.026505393177837 0.9973815627868937 1.753819374223778  -0.9391044759676777 1.173782283996075 1.722687442616744  -1.188572675247871 1.128656378010582 1.764856318213784  -1.236463680228346 0.5843272210989572 3  -1.083088873069132 0.5816338069539708 3  -1.2322788547395 0.430985859469061 3  -1.086830741578042 0.5144942931992081 2.792827961877503  -1.790321908262559 -0.1359400023085897 1.59329122461374  -1.552447878431092 -0.1517280993030719 1.401022938033577  -1.696965121787855 0.005022563501815319 1.602685267723029  -1.553696811676687 -0.06987473143450718 1.653071467379156  1.972953888119611 -0.2746037822439253 1.372281606824826  1.753556668618872 -0.2402844425734547 1.339794116495772  1.821695691034513 -0.2762172420653529 1.502958776138677  1.989874603375815 -0.1028048771674748 1.356988283675049  -1.684867610180715 0.7196825145120627 1.492204237068317  -1.603332406811842 0.7771600314591464 1.651644619732335  -1.866500620541251 0.7035842360368104 1.538282268106518  -1.719563008963503 0.6773293529237138 1.763252782696964  -0.1281967199580418 -0.987373725145547 2.41631495587604  0.02122250526797501 -0.9979097656734023 2.45121364836968  -0.08566276754466014 -0.9915629538090679 2.628637484458721  -0.03508814511145705 -1.234181607604605 2.560208683308693  -0.4840677488885385 1.36002765996548 2.055996145982026  -0.67696777816034 1.163669587031098 1.986530690785929  -0.5884110214657677 1.285141746091693 2.215825927141724  -0.7898334822649098 1.294613287863109 2.093496633045264  0.732183409537418 1.140526737954318 1.522684020460248  0.7136845965735563 1.320018230157566 1.474619923858329  0.5609737273861496 1.24801251017435 1.730542466241144  0.7607001350052351 1.260424519763623 1.669560102790209  -1.825713662961976 -0.3710157782818985 0.2972317067228239  -1.665736257823091 -0.5401314351128853 0.2441959424061398  -1.635345928454321 -0.300717767320218 0.3240539739491898  0.0808911091286354 -0.9920329211428032 0.2147789614275173  -0.01604060903215099 -1.16554818445953 0.1766097615666878  0.07340078397912998 -0.9927706537783795 0.3624664633421955  -0.07141739134058871 -0.9929660009027577 0.3923981418559908  0.9914647818268567 1.726907210519121 1.935228668438762  0.883561581743268 1.784582672568525 1.710009801277581  1.092079078846156 1.673127748326445 1.788281947903533  0.8977302739666044 1.576180244082236 1.801947489500242  -0.2267567149134798 1.513183490544626 0.4293770836378363  -0.2526967854776053 1.466461901023554 0.7244472697693704  -0.05368123014705692 1.522627891634968 0.6186802301191092  -0.1940693391355877 1.614031180124887 0.658093047244721  -1.320126265242179 0.4761884245358196 2.23060000235975  -1.418309889587639 0.3367776497620777 2.301487421637401  -1.550346573869616 0.4460667938087018 2.354424371718915  -1.54120465150066 0.4855765353840453 2.179680189376256  -1.066251447381203 0.9771681051469477 1.020406983681771  -0.8897116341221156 0.9062885361281463 0.8585034766986818  -0.9039902440925702 1.02045575882443 0.9856694410234375  -0.8704805934261621 0.7935001357442195 1.041365548800874  1.420356283688342 -0.5318978961008229 2.135450529866246  1.442171672782381 -0.4689451371130767 1.838094726211644  1.434768221059387 -0.6314786586437123 1.959283801000372  1.26322631821527 -0.5272153915546227 1.988631633479808  1.566222033465848 0.6661030888008038 0.5912807869876476  1.41365910736517 0.7656831411113297 0.6544112952728978  1.427425469460917 0.5913203771944064 0.6845895297801308  1.501637842982097 0.7343919957862748 0.8361987057655689  0.9492748357598436 -0.9332566985910621 0.7408290738700772  0.937815819469311 -1.102647719533349 0.7959480547070267  0.7575103922057984 -1.060125537924931 0.6676058906412023  0.9872683049826675 -1.053111237938998 0.5444847349455273  -1.394976770303369 1.023695423856162 1.353661893518067  -1.539330023610381 0.9836157207883699 1.221107146644132  -1.569606611745384 1.224866583861095 1.294722001321764  -1.353190869454159 1.168567846943077 1.169303413777984  0.1940584179110046 -1.631225558980295 1.891478989097729  0.2444874777907739 -1.527581619328223 1.770983848432635  0.1139188858803832 -1.641199156399227 1.731456787249881  0.1510154567392156 -1.40578680598065 1.88360135627333  -1.834659833569184 0.05411006212859725 0.6032579151883576  -1.991321199565352 0.08811733957303396 0.6811653766700074  -1.807355182189475 -0.04436722185485539 0.7456672517749947  -1.772712444186903 0.1482273834922889 0.8838650302260582  -1.472236218325768 -0.3457096418613904 0.8083840622177748  -1.654426691563033 -0.3918839033978203 0.6138030634085107  -1.740212602464505 -0.4625441539676962 0.794010716895973  -1.734128706883156 -0.2370380117725486 0.7849080115312334  -1.81721082800874 -0.3385812863725766 2.230638633143541  -1.920278857124933 -0.5263011487646481 2.363447904506016  -1.670464226322551 -0.3455012114220651 2.310981494070414  -1.741675018387468 -0.416195543983036 2.510290100107317  0.4156613510663425 -1.487897811549126 1.313572781421342  0.3193289846786915 -1.373581300646054 1.105902044370386  0.4927991527196798 -1.258523168278787 1.308214349988002  0.5706867531411715 -1.380936419396562 1.137688257441034  1.150763483763826 -0.07403701484020225 0.1412992326054288  1.202427620265694 0.06754131316450507 0.2077468011893311  0.9967194381176245 -0.03330810375885275 0  0.995764331275538 0.04300546626492786 0.2414409042137786  -0.5829747950909114 0.8089792694386743 0.2501111363532545  -0.5527650200038382 1.01919813386297 0.3622080827136206  -0.589889619238378 0.8033044199185385 0.4182739102737424  -0.4459727035722207 0.8900507122648655 0.4072403527329742  -0.4379351919692966 1.071817927875505 2.274393628348585  -0.5563420448440157 1.134842547134765 2.429446295647148  -0.3912840857067477 0.9192823875237183 2.424995508699585  -0.3335693971529946 1.180859189287922 2.503146507666767  -0.2922497887267363 -1.110135635527742 2.213768322081968  -0.5529160698573018 -0.9829206581285101 2.138364979232225  -0.3124646235992822 -0.9451801752772526 2.303708664651847  -0.4047639178773533 -0.9120772671177818 2.090832628222699  0.4820686491892943 -1.00566252304112 0.1677448496227296  0.6005974061314721 -1.004002113154534 0  0.5777463132391529 -0.813270173602645 0  0.6345577261480736 -1.01904956410918 0.2016308308830366  -0.0640177889630098 -1.622806943634985 0.4704848386427511  -0.0991987408327164 -1.671655784788151 0.6749780739722862  0.06283097326430762 -1.509449355093871 0.6573880638819291  -0.1680634139028745 -1.479246799589528 0.5528175866093812  1.006006307849832 -0.5683595958046099 1.664776310289629  0.8689993211793785 -0.485357086178283 1.538725870171161  0.9155723985887951 -0.3982249868131835 1.731296738234335  1.092369912770934 -0.4450435652849185 1.518371264423775  -0.8028907507915748 1.158654476938999 0.9762236647563317  -0.8601986046786221 1.07797107201586 1.175698568965796  -0.7258428369259003 1.326592728219886 1.188279032467483  -0.8650493200261411 1.258243596722877 1.251740412119593  -0.6711943941782386 0.7365793155322974 0.6707812560842432  -0.8717216159126097 0.7888283201043974 0.6812536006502942  -0.7949831001402083 0.6000291767258183 0.5795768915102262  -0.7632408748660222 0.6387071901324219 0.8885851873064419  -0.4381121694463349 -1.768181673083376 1.373749359471254  -0.6181569519413839 -1.73080279357406 1.562226069681498  -0.5474
[...]
<PointData  Scalars="f_10"> 
<DataArray  type="Float64"  Name="f_10"  format="ascii">5.9800192535796626e-01  5.9661196354272150e-01  6.7499665975321077e-01  6.6420897599748363e-01  7.3861854761107695e-02  5.4697564002143130e-02  0.0000000000000000e+00  7.0283425018795795e-02  0.0000000000000000e+00  0.0000000000000000e+00  0.0000000000000000e+00  4.4379833363761632e-02  4.7436639748047815e-01  4.5707383563913689e-01  3.9125929082207411e-01  4.3484055753089795e-01  8.5962027771816094e-02  9.1320875237908716e-02  1.1057047072322843e-01  1.4162425618620270e-01  8.0952645344425855e-01  8.3389267544544909e-01  8.3190159916276241e-01  8.2852159084993604e-01  7.6623326774960490e-02  0.0000000000000000e+00  6.2041829892990320e-02  5.4977522068860286e-02  7.2107679325864538e-01  8.0472962718841179e-01  7.6724337852473656e-01  7.7599309266766570e-01  8.3171924155669918e-01  8.6334622121156113e-01  7.8338620465614384e-01  7.8991683573156390e-01  7.0966026839594509e-01  7.5992629771475306e-01  7.0058712507073406e-01  7.2325394735107684e-01  7.6682965254209867e-01  8.1705211328925653e-01  7.6965846032661733e-01  8.2966131718945513e-01  5.2256434445583944e-01  5.8459098764567208e-01  5.7420299162951471e-01  5.8825448595946217e-01  1.0000000000000506e+00  1.0000000000000506e+00  1.0000000000000506e+00  9.3087185462040156e-01  5.3098504913041955e-01  4.6694845209045810e-01  5.3413520424682459e-01  5.5097366220730215e-01  4.5734605848038995e-01  4.4652889342858798e-01  5.0079262595878460e-01  4.5232250742235186e-01  4.9730371332149176e-01  5.5049012128952135e-01  5.1256777487454164e-01  5.8769541304603046e-01  8.0489800446843995e-01  8.1709718455881641e-01  8.7615103314693088e-01  8.5329020664729149e-01  6.8531076808469094e-01  6.6214788473691322e-01  7.3855756006964157e-01  6.9781232364664425e-01  5.0757546208180304e-01  4.9154425001849161e-01  5.7684913234688551e-01  5.5650962159981121e-01  9.8936623085013539e-02  8.1298777829904856e-02  1.0794203863285899e-01  7.1661877641395366e-02  5.8901485798266755e-02  1.2040599382553911e-01  1.3043065961664807e-01  6.4478698548417812e-01  5.7005390780793175e-01  5.9579583066030173e-01  6.0059774324235105e-01  1.4312253315386975e-01  2.4148979822484168e-01  2.0622707864565570e-01  2.1936118953153116e-01  7.4357814202152317e-01  7.6722975833926643e-01  7.8492130105679991e-01  7.2663177582059457e-01  3.4010770753084490e-01  2.8617392803867914e-01  3.2854327999754640e-01  3.4705598956739553e-01  7.1173540000303348e-01  6.1260769187381658e-01  6.5298784209102123e-01  6.6279240697409092e-01  1.9705829057725149e-01  2.1812544253118854e-01  2.2818126016265902e-01  2.7870992386208326e-01  2.4691438435722185e-01  2.6528224725268768e-01  2.2250563607041204e-01  1.8146518745428872e-01  4.5118403533588780e-01  4.0689259288740398e-01  4.3168242273852941e-01  3.8975604205443209e-01  6.3043853682375939e-01  5.9027223944056384e-01  5.7708831160712504e-01  6.2780254301800054e-01  2.0102183251080039e-01  2.2698306486737205e-01  2.4855489263549521e-01  2.9464926680004266e-01  2.6940991373587969e-01  2.0453817824065298e-01  2.6463992787671342e-01  2.6160830464818940e-01  7.4365782220370469e-01  7.8787424573614029e-01  7.7040134345536482e-01  8.3679490339091833e-01  4.3781715272014077e-01  3.6862801568757320e-01  4.3605946696067771e-01  3.7921473092386071e-01  4.7174399936427386e-02  6.9291990609377158e-02  0.0000000000000000e+00  8.0566442476693104e-02  8.3540236473553769e-02  1.2086286921602060e-01  1.3968132623210502e-01  1.3584521886113157e-01  7.5791661886042350e-01  8.0970781874013464e-01  8.0809739461096131e-01  8.3426056592165199e-01  7.3781827980787407e-01  7.1262179223388789e-01  7.6765503081398323e-01  6.9664650352184054e-01  5.5924261485819825e-02  0.0000000000000000e+00  0.0000000000000000e+00  6.7265506594591518e-02  1.5678264709274600e-01  2.2494903297487487e-01  2.1909937919790023e-01  1.8424069589703371e-01  5.5488177160291363e-01  5.1292710788505691e-01  5.7706072379936280e-01  5.0616954731844044e-01  3.2540941079739516e-01  3.9187742120252789e-01  3.9609138834585988e-01  4.1723794161754835e-01  2.2409153913403554e-01  2.2720285103976814e-01  1.9349397905354476e-01  2.9607350950454325e-01  4.5798555067965474e-01  5.2083064201168761e-01  4.7339044545408082e-01  4.6809004139415800e-01  9.4058980689335647e-01  9.4662264412911012e-01  1.0000000000000506e+00  1.0000000000000506e+00  5.4735101885048848e-02  1.2916020803843084e-01  1.2628476849823955e-01  5.5273856549699518e-01  5.2854484389442413e-01  5.0713345310837954e-01  4.8631426807181877e-01  6.2129829507931877e-01  5.3879985934067398e-01  5.6769234167350935e-01  5.7719620544173211e-01  1.2430709494292780e-01  1.8981792162105382e-01  1.2674043906730278e-01  1.5171981294621173e-01  4.2282358920592467e-01  3.9554477798224735e-01  4.3805441742460044e-01  4.6126593506614161e-01  1.0290353610526246e-01  6.7933814188905428e-02  5.4357857299455484e-02  9.4083111342600514e-02  5.1421054751101314e-01  4.9108916784372403e-01  5.5406191442480213e-01  5.3767415708914346e-01  9.3780041020683991e-01  8.6290800121486422e-01  8.6824436307827879e-01  8.8522814503499381e-01  5.4411532418389391e-02  7.2121508756620961e-02  6.2859589563910773e-02  1.3261063003725113e-01  2.9399172481084640e-01  2.7515233197939165e-01  3.0341979808203950e-01  7.7534067891433178e-01  8.2353284108771330e-01  8.0069484890034603e-01  7.2567385397443906e-01  3.6542334307919305e-01  3.0603854404603653e-01  3.4691413228851614e-01  3.4925627964322631e-01  4.9091222202527296e-01  5.3563037621285559e-01  4.8326717407964159e-01  4.8512510488874228e-01  4.4943118722765169e-01  4.3140041334712387e-01  4.9852277208556889e-01  4.5021149207328642e-01  4.6576971266644834e-01  4.3178571771022201e-01  4.8810135523450432e-01  7.3545126655819759e-01  7.0488926352523151e-01  7.5033262994439076e-01  7.8513654350117557e-01  4.8265136883171705e-01  4.7830868166331969e-01  4.1672877923826468e-01  4.8867030352658541e-01  2.9636537099873123e-01  2.5860987032401245e-01  2.5386698094763832e-01  3.2388785854449020e-01  9.3601300785458197e-02  7.6733630016383475e-02  6.0728589633346576e-02  1.2611337467831990e-01  9.4076536511327502e-01  1.0000000000000506e+00  1.0000000000000506e+00  1.0000000000000506e+00  9.1961383961406840e-01  8.7013434824797342e-01  9.3019390355408971e-01  9.0146807788096683e-01  5.1011184065189386e-01  5.4292224527123945e-01  5.6618772192312172e-01  4.9326337327130515e-01  2.6298143363825438e-01  2.9877165120940102e-01  3.2867549914413813e-01  3.1902616437201953e-01  2.6148492400495460e-01  3.2736803758832245e-01  2.4660044892746188e-01  2.8229481824395791e-01  7.4724334096355371e-01  6.7739949271764588e-01  7.0898887347115214e-01  7.4181319315641825e-01  9.3561679278962739e-01  1.0000000000000506e+00  9.2566401809316012e-01  9.4374240128008957e-01  6.1931561468628282e-01  6.6614818440564816e-01  6.7896337693532061e-01  5.9944569873558706e-01  9.3285013771336944e-01  9.4938274650786691e-01  1.0000000000000506e+00  9.1990367833270525e-01  7.7233030581968665e-01  8.2495373112263781e-01  7.7882943633240020e-01  8.2717274856353507e-01  5.2432968453022166e-01  4.7316729219622577e-01  5.1003293585746923e-01  5.2142911379038626e-01  9.4769327722635444e-01  9.4890762884468061e-01  1.0000000000000506e+00  9.1325999275165348e-01  4.4821569513860271e-01  4.5187631901993563e-01  4.9933057808359471e-01  4.6667954038840853e-01  8.3349076189274485e-01  7.9676649756537943e-01  8.4513170640976598e-01  8.1335824077631380e-01  2.8581785929323866e-01  2.2534951800426559e-01  2.6597268442395844e-01  2.8279018781724652e-01  6.8011995879845943e-01  6.2302313632130479e-01  6.4610008549239639e-01  6.9876085065190496e-01  8.2773487375196253e-01  8.5364861865501329e-01  8.7835965851864906e-01  8.4748973271255246e-01  5.6588696570913831e-02  7.2506838557132636e-02  0.0000000000000000e+00  5.7047082547404510e-02  8.1600002534106497e-01  8.3147723346433955e-01  8.1322590771926917e-01  7.5214392516934581e-01  4.5630188732732874e-01  4.6258841102012732e-01  4.8430245947947237e-01  5.1968254767806399e-01  7.5844103892248693e-01  8.3050880940361793e-01  8.0439043931563747e-01  8.1154385350032068e-02  1.4078748152625142e-01  7.2670969680673006e-02  5.5435335522011797e-02  7.2591716785579941e-01  7.0406575255867621e-01  6.8761286398937005e-01  7.3789546447995302e-01  2.6812505976736400e-01  3.2208222072216020e-01  2.8510044787715405e-01  3.0918325359769550e-01  3.6424037904067708e-01  3.9275664007318972e-01  3.8104448003102853e-01  4.2624796006686849e-01  5.7151410719445261e-01  6.3339415253557074e-01  5.7192184147249325e-01  5.7294449530364777e-01  8.0246774279440214e-01  8.2561087451832293e-01  8.3049687303253983e-01  8.7407593453976873e-01  6.5956420279638572e-01  6.1112499378135299e-01  5.8326170074167261e-01  5.9085178953240058e-01  4.2308516774137095e-01  4.3214177143172477e-01  3.8363879094198056e-01  4.2779922160291767e-01  8.5366556692560924e-01  8.2992416277903158e-01  8.0974220709419042e-01  7.8863554349653997e-01  5.3899838674323020e-01  5.5511219724951355e-01  5.3683045162182264e-01  6.1516098467567559e-01  8.8437396490406195e-01  8.6327265620112470e-01  8.6003508390244077e-01  9.3009749521413576e-01  6.1997465183365197e-01  6.6036159238451486e-01  6.4193759760116220e-01  6.9401850904981277e-01  9.8660235232196136e-02  1.7792195555631007e-01  1.7243902439544659e-01  1.0152951239019205e-01  5.4493598987569136e-01  5.2038881522346403e-01  4.8051140291590971e-01  5.3889520907230193e-01  7.8894269146689344e-01  8.0873639483412108e-01  6.3129020088836674e-01  6.1213850558765326e-01  6.0947617182181557e-01  5.6612585450805364e-01  7.6169664173092233e-01  7.4890646865893795e-01  6.7536233802683565e-01  7.0190134610179267e-01  2.8240268571573773e-01  2.8925782988208509e-01  3.3718083343517441e-01  3.2584788335209175e-01  6.0803858164426239e-01  6.9573021982120031e-01  6.4328764852561304e-01  6.8006284988358390e-01  1.2682452710671621e-01  1.0181231892452400e-01  5.4223160123953992e-02  7.5457489326651861e-02  4.7869850317177670e-01  3.9467741895929082e-01  4.5690146498277184e-01  5.5088355984602921e-01  5.3511934216551915e-01  5.4629370520510856e-01  6.0540314961306052e-01  6.4069784902888138e-01  5.8504152293083056e-01  5.8112990578464518e-01  6.2895229898084026e-01  6.5100631579837342e-01  6.7810713135302658e-01  6.5189564572313619e-01  0.0000000000000000e+00  0.0000000000000000e+00  0.0000000000000000e+00  4.5947729529362852e-02  1.0000000000000506e+00  1.0000000000000506e+00  8.9951266014929454e-01  2.6807168161655170e-01  2.4414003972108317e-01  3.0735739834842807e-01  7.9326605258188232e-01  7.5075956135563704e-01  7.5077334797036877e-01  3.5435374742160924e-01  3.7310836969803696e-01  2.9740458663734659e-01  9.4775176548206230e-01  1.0000000000000506e+00  9.2920253920917606e-01  9.5068763374800858e-01  2.1090832100694226e-01  2.2622754774827281e-01  2.6241777396138521e-01  4.5496633271815234e-01  4.1428408929381988e-01  3.9426594953927341e-01  3.7350395109063550e-01  9.2789542399847946e-01  9.5426811847951831e-01  9.3931269042499033e-01  1.0000000000000506e+00  2.5322679657235686e-01  2.7960936603563502e-01  2.3476588601916529e-01  3.0888196638328802e-01  7.9187720380991866e-01  8.4070454057156163e-01  7.7172318730520006e-01  8.3565291360687655e-01  8.3531240046917221e-01  8.3693358575060739e-01  8.3524439544122042e-01  8.8962839402772664e-01  5.7138267346408522e-01  5.0409667518710610e-01  5.4932280503183051e-01  4.7809870353043576e-01  1.0000000000000506e+00  9.4878569417362846e-01  1.0000000000000506e+00  1.0000000000000506e+00  1.8756115097410325e-01  2.3832504038312524e-01  9.4257057000292210e-01  9.3173551912612784e-01  1.0000000000000506e+00  1.0000000000000506e+00  8.0698504099805390e-01  7.8952550811319888e-01  8.3236658521136875e-01  8.3139900638629227e-01  9.4069753517049148e-01  8.7883992566570224e-01  9.1715703187439024e-01  9.0855590503391737e-01  9.2037663213237275e-01  1.8476833776968710e-01  1.8665402822252786e-01  1.3175532541884991e-01  1.6496094639952730e-01  8.5794743391515516e-01  9.5219225310967159e-01  9.3428194677912635e-01  9.1510468362990471e-01  6.0356010756423362e-01  6.4905827898057267e-01  6.6364843199901891e-01  6.2736719648905193e-01  6.1333032547223909e-01  6.2800391128854405e-01  6.4065961677624073e-01  5.4065607468304377e-01  0.0000000000000000e+00  5.2176528194277060e-02  0.0000000000000000e+00  0.0000000000000000e+00  8.9111530783603710e-01  9.3885992054502088e-01  9.2999393305784217e-01  9.5024756567808377e-01  5.3511859403776141e-01  5.1735876096549027e-01  5.2219642563650959e-01  0.0000000000000000e+00  0.0000000000000000e+00  0.0000000000000000e+00  5.3745188604266657e-02  7.3313411314639854e-01  7.9360664340832143e-01  7.1623465433979705e-01  6.4415196811707640e-02  5.5800476163521316e-02  0.0000000000000000e+00  8.0566261573222123e-02  3.7729243292997638e-01  4.1410025764397190e-01  4.2281346601541858e-01  4.0531628286238469e-01  9.2677350721535179e-01  9.2946526276192332e-01  1.0000000000000506e+00  3.7074121750263045e-01  3.3476152141368920e-01  3.6553256149666902e-01  3.6912698893884621e-01  2.8694308462103535e-01  3.0991791909998390e-01  3.4635175252198935e-01  4.1695748441745745e-01  4.4346254137283786e-01  4.6885476456938846e-01  4.1099639640891616e-01  5.2127354340373999e-01  5.6032632961488393e-01  5.0360635779273788e-01  5.6846633912381450e-01  9.4988611976204229e-01  9.4378963244418856e-01  1.0000000000000506e+00  9.3073030754969188e-01  8.9795446918088573e-01  9.5925277359613248e-01  9.3752205547369272e-01  9.4889225285287426e-01  1.3784680987913719e-01  1.7606841236884091e-01  1.0553140948583914e-01  1.6191394947295676e-01  9.2831905083130928e-01  1.0000000000000506e+00  1.0000000000000506e+00  1.0000000000000506e+00  2.1164600785769949e-01  2.3867649183924719e-01  2.5940220996386865e-01  2.6204578159844510e-01  5.3820314377946743e-01  5.1986035851062484e-01  5.3088754734088994e-01  5.7113787791470139e-01  7.5576458491084653e-01  7.9753771432147846e-01  8.2282045459533060e-01  8.1127184126448459e-01  8.3300318512773719e-01  7.7685146379799230e-01  8.3388794682857792e-01  8.1159137821013805e-01  8.8170223301893114e-01  6.2262931910854169e-01  6.1817854085457646e-01  6.5331907757890351e-01  6.9310022123972548e-01  3.5294455145554521e-01  4.1307763178249013e-01  3.2681350712907370e-01  4.0103657492897604e-01  5.4798964575939924e-01  6.1328431985813425e-01  5.7676963735724607e-01  5.6642351124893020e-01  8.7772544544743425e-01  9.4994452577061528e-01  9.2773975446739976e-01  2.8174203993636882e-01  3.1610678033122430e-01  2.6728630589658370e-01  3.1944686516739412e-01  9.0466794592256083e-01  1.0000000000000506e+00  3.2406130663556360e-01  3.6455485473425564e-01  1.1801867425078962e-01  1.7568066314785086e-01  1.3478065152857810e-01  1.0844604255674323e-01  9.2919499175839504e-01  8.9697057755104515e-01  9.3476689876528973e-01  5.4489157291969584e-02  9.5804250330173299e-02  6.9018476590139044e-02  1.3147397564452437e-01  1.5357704980247971e-01  1.5599589837978955e-01  1.3193345587734301e-01  6.4023325898409322e-01  6.6585601602734734e-01  6.9859771927722536e-01  6.9652178935413878e-01  3.3334877816984199e-01  3.4153995269021220e-01  3.1343315322752063e-01  3.1402846958625036e-01  7.5350484199707146e-01  7.1701161832224425e-01  6.9172860706251005e-01  7.1989523111797604e-01  4.1580474120589761e-01  4.8654207653215276e-01  4.5695094684111165e-01  4.3889613006102290e-01  4.9332291830021741e-01  5.8311350883542024e-01  6.2606551677136402e-01  5.6876505382405196e-01  5.7105615849971880e-01  3.9639810553082172e-01  3.8872083667887564e-01  4.4665411933939347e-01  3.5273961515273389e-01  8.6378913163893556e-01  8.5031534984850143e-01  9.0830693755497149e-01  8.7854771896926698e-01  9.2229417219520360e-01  9.1621359410074998e-01  1.0000000000000506e+00  9.4532331891956045e-01  8.8843161640268853e-01  1.0000000000000506e+00  9.5798215555873212e-01  1.0000000000000506e+00  1.0000000000000506e+00  4.9138926865788406e-02  0.0000000000000000e+00  0.0000000000000000e+00  7.0054381370651994e-02  3.0565174856123728e-01  2.5631725734596017e-01  2.9894385061578138e-01  3.0208349254439731e-01  9.2403551882139323e-01  8.7417193680042737e-01  9.5203336814698625e-01  9.3192119437136256e-01  9.8621926995983683e-02  1.4927311654724165e-01  6.0628154482631556e-02  1.1148158725223103e-01  9.4381479680788760e-01  1.0000000000000506e+00  9.3461262972037185e-01  4.7594641046964828e-02  8.8271206832949395e-02  0.0000000000000000e+00  6.2998781895462458e-02  9.2650745671553469e-01  1.0000000000000506e+00  1.0000000000000506e+00  1.0000000000000506e+00  1.4481029318132704e-01  4.7505072201797643e-01  4.3396124751383003e-01  4.8520360378784849e-01  4.8366150601286328e-01  7.8662343818179592e-01  8.6315480985652093e-01  7.7785755938708556e-01  7.2691473280298635e-01  3.8339414889089712e-01  3.2772218677143627e-01  4.2560368015096256e-01  3.7843491805758556e-01  1.6439541581283912e-01  1.8973853940770666e-01  1.3530668303027205e-01  1.2953326825419925e-01  1.3919364970162942e-01  1.7574472256540255e-01  1.1342777893219742e-01  1.3108863669598622e-01  4.2575775781502967e-01  4.7227558541119141e-01  4.0788437675825862e-01  4.3104685592567138e-01  8.7601646626408580e-01  8.2689073249343370e-01  8.5291340667219695e-01  7.6736504856592780e-01  7.7559162988915864e-01  7.9630446328149052e-01  7.4373256224595008e-01  1.2582603916707941e-01  8.4478289172218168e-02  5.2793451217040849e-02  9.6221523498458819e-02  5.6715428850836302e-01  5.7782463016213625e-01  5.2969070089565196e-01  5.0882296322378395e-01  0.0000000000000000e+00  0.0000000000000000e+00  0.0000000000000000e+00  4.7675164248204303e-02  4.6916852367735229e-01  4.7943750511049255e-01  5.0341039788122266e-01  5.2874943032424904e-01  2.2377713769604740e-01  2.7489737645138757e-01  2.1514893788642517e-01  7.5913026274002060e-01  6.8744855962740281e-01  6.9006167811938979e-01  7.0181773805333725e-01  7.2749048489224688e-01  6.2056770018413387e-01  6.5161236418304269e-01  6.5930301634804045e-01  5.9869122203180580e-01  6.1618230433479371e-01  6.0740768248191912e-01  5.6267943566190537e-01  5.3142714313791373e-01  4.8349588812235328e-01  7.8573387171138365e-01  7.3334668401917324e-01  7.8601626596570084e-01  7.3282497661704504e-01  0.0000000000000000e+00  0.0000000000000000e+00  0.0000000000000000e+00  4.6141146054101655e-02  5.2854351167136292e-02  6.2816347847978266e-02  0.0000000000000000e+00  6.8466877533672998e-01  6.5640003355494325e-01  6.6506516189807652e-01  6.3528127788269306e-01  5.9958069652754586e-01  5.5285096850343551e-01  5.6090000825152353e-01  3.4512496320768449e-01  3.3025745162445475e-01  1.0000000000000506e+00  9.3622273308951087e-01  9.4847625723936224e-01  1.0000000000000506e+00  6.8030227054306491e-01  6.8286895340914777e-01  6.9570506839568824e-01  6.3471467859412034e-01  1.2753225048970973e-01  5.6227073480005815e-02  9.5766741031115621e-01  1.0000000000000506e+00  7.3733323873889822e-01  6.7078111418444275e-01  7.2286777382247736e-01  7.1993794366851316e-01  9.1334024650155221e-01  9.3282959069794757e-01  9.3385508178641041e-01  9.4698152368735755e-01  2.2261259165392130e-01  1.5932808117165909e-01  1.4971885496122359e-01  1.7220243856457934e-01  6.9667995075327782e-01  5.0582263641167657e-01  5.3422070553366852e-01  5.6360294683607126e-01  2.3445766151568920e-01  3.0097274855334033e-01  2.4397293978616716e-01  2.4649671234492526e-01  8.9371822223849695e-01  8.5379320322608365e-01  8.7167443806860045e-01  8.5667258259763912e-01  2.1583445809844434e-01  2.1493988519928509e-01  2.6703501513874378e-01  2.7959423128937871e-01  2.9461648673178242e-01  2.8237015431472245e-01  3.3960913481939536e-01  5.7931586060570051e-01  5.7213582451198708e-01  3.3493875510063897e-01  3.7934843271599727e-01  3.7342262076373206e-01  3.1996604461285072e-01  1.6780150761251797e-01  1.7553867231221124e-01  1.8242251062191159e-01  3.1767087764982893e-01  2.8155927587956220e-01  3.0756127194471544e-01  1.9933287770444011e-01  1.5379659489401731e