<?xml version="1.0"?>
<VTKFile type="UnstructuredGrid"  version="0.1"  >
<UnstructuredGrid>
<Piece  NumberOfPoints="370" NumberOfCells="1211">
<Points>
<DataArray  type="Float64"  NumberOfComponents="3"  format="ascii">0.6305366219362482 1.461672021701259 2.573137157518678  0.3505506524007391 1.439119323266543 2.229124975212371  0.7233515360664949 1.860504275633375 2.143566592013062  1.16929327003969 1.615214451734676 2.02523850809439  1.962734657692562 0.3783613699999914 1.846559366820982  1.91926574085063 0.5296409455353088 2.339697577168066  1.745217422811993 0.9572087840349652 2.004132439917261  1.399310647126385 0.4861101870387526 1.965101941806065  1.491481428815471 -0.04246098436356954 1.192857642755402  1.240992448073932 -0.7277991002123511 1.504890969845327  1.451841918673485 -0.4160870690660196 0.8124817833527678  1.957241061154269 -0.4044530916512841 1.130662055155801  0.850549934291718 1.02575904982513 0.5353204991820871  0.9958825989361937 1.724545838077586 0  0.79119686240752 1.833952643622452 0.6008470958115142  1.190141907336148 1.598104417287793 0.790786027167462  0.1466855526147347 -1.464880016853866 2.2297974104337  0.03653064831300958 -1.996402045182105 2.459535282061257  0.4182078247438861 -1.953068608486724 2.399152904188485  0.3606546971297125 -1.571158736162652 2.586357545217903  0.9545290653659886 -0.2816454632327977 0.6694471130563237  1.285895848641168 -0.9157810167207565 0.4484794291144768  1.191933442830757 -0.8743164676129442 0.903733845483468  -0.04369448314686741 -1.9956964690359 2.079055695557334  -0.08831675386205026 -1.592209287680673 2.5786718043508  -0.4597234839101871 -1.940474970960854 2.365577208844509  0.8599034339052349 -0.5023742943566752 3  1.339634282624336 -0.7964456803802702 2.547452680787598  1.468057415404991 -0.2920147759474656 3  1.371659700543215 -0.6077316139648379 3  1.512588052516405 -0.2740719184538642 1.754192008279186  0.9893257645081893 0.1083773317058151 1.785271323260748  0.9756404903825265 -0.2120504217921436 1.431575385960868  0.9545290653659886 -0.2816454632327976 2.01543266745928  -0.6813513412608918 1.373329703138566 1.700767684044582  -1.111645100464135 1.018766509541888 1.580900689761718  -1.059542960476273 1.69051866591576 1.998542381954114  -1.170945775598536 1.613858275470806 1.514352004916045  1.52494138948322 -1.279291314658712 0.6173649490931152  1.669784403879814 -1.098334036361089 0  1.779059765191092 -0.8938942146969459 0.5606628110678626  0.1821743391565473 1.595435930750562 2.5903667231274  -0.1879604925798806 1.981487507310104 2.257437501874302  -0.4179722159358051 1.953140079637284 3  0.04335340489247286 1.995730062311829 3  0.708221843788238 -1.311703949689869 1.769051025256928  0.7911968624075247 -1.83395264362245 1.495263286014477  0.477219149204427 -1.935167718916343 1.889112662052278  0.2683758495222019 -1.490673620404064 1.475667784107566  0.9025541663092692 0.4225803863622857 0  1.135486067825821 0.947534454009326 0  0.6021968632248157 0.7932041258053155 0  0.9827995192597104 0.1746394117049448 2.234570310665951  1.323841507958512 0.4889974985894576 2.488428520580235  0.9025541663092692 0.4225803863622857 3  0.9955658339392071 -0.04502084354218341 3  -1.126481124092755 -0.9473283376278889 2.074233125962432  -1.664006297246322 -1.10914411354164 1.875888952633512  -1.294582432735519 -0.820629184485212 1.551364336100787  -1.312762776967178 -1.497472070268641 1.943469646961802  0.9807852804032303 0.1950903220161286 1.006853791166158  0.8534608015375593 0.5144276117421314 1.633723584493013  1.430264222105482 0.4050405554365119 1.451769552081978  -0.7740713825566979 -0.6255101783274258 3  -0.9807852804032304 -0.1950903220161286 3  -0.8836349378529437 -0.457975773256652 2.310914062613334  -1.344567555190213 -0.6983284766763056 2.512258555473228  -0.5131581223052614 1.382860631703773 1.129235146161471  -0.02829600397680024 0.9972130868589251 1.611363293353632  0.06779261740588695 1.516765368192542 1.298023978812301  -1.988366544844581 0.1181164523892848 1.985795232067481  -1.43886208970591 0.5149695080182193 1.569797912004486  -1.36936675165574 0.5445791180649255 2.094601113017113  -1.441353532002964 -0.002342185071706054 1.686018115577875  -1.973204015961851 0.2720641916429689 1.04935599125763  -1.973811255843297 0.2658987816605045 1.52516799132508  -1.873357740944297 0.6809793394824694 1.315280730417338  -1.188860511984403 1.060117160508811 2.563049150981436  -0.6181448518038473 1.361670697378814 2.257069987665449  -0.5260672980891882 0.8472392595660831 2.417582874741109  -1.033679646116655 1.024275855209801 2.145813876738128  -1.514674703827641 0.3918295191835702 2.521219115594658  -1.9147265257177 0.5446047324439067 2.31369071979841  -1.987182279842392 0.1301404967408785 2.419469863729676  -1.961570560806461 0.3901806440322567 3  -1.423509350166563 1.402886612173637 2.399036955962143  -1.245839619965377 1.552394485835316 3  -1.059542960476273 1.69051866591576 2.444231285366565  0.3959736871192822 0.9167757433455479 2.450393920867024  0.3959736871192823 0.9167757433455478 2.007856029557719  1.014116663803043 1.091301493651112 2.474767832486639  -0.6397769089613947 1.885856361599427 2.410835427716981  -0.1396511336192156 1.472791285825262 3  -0.5135625025850592 1.416926151553228 3  0.2171273278454561 1.452231135633227 0.7206241776988639  0.5838681171949094 1.350343322085466 0  0.570825861405329 1.906772433206812 0  0.07503473923697349 -0.9926097232320116 3  0.5289722636881395 -0.8456865231038897 3  0.3150958902771757 -1.466099679343499 3  -0.7388634075939597 -1.312816839320978 0  -0.5715818319253561 -1.466126416576961 0.4872632822601926  -0.790979724086402 -1.834068706473131 0  -0.4336968377143349 -1.444224541082522 0  -1.704258405401222 1.033837715886708 2.209211779154401  -1.813533168648966 0.8293990131207396 3  -1.57081860896361 1.223389760977683 3  0.5942163908489371 -1.374481420233743 0  0.7270811635437457 -1.27490888061952 0.5462966671918753  0.9958825989361997 -1.724545838077583 0  0.8720618164091423 -1.226870877129539 0  1.52814208573423 0.1613137918978926 0.5102072734156454  1.931628784137607 0.4888854537001639 0.8268342758254814  1.873050508530103 0.6819921490195341 0  1.779059765191089 0.8938942146969522 0.5856441150032816  -1.438480770485098 -0.07050119218872986 2.438185635059182  -1.513914009740071 -0.2001832623755173 3  -1.479465319414609 0.08365730523362372 3  -1.973204015961851 0.2720641916429692 0.585554881990308  -1.981971206824973 -0.1830494089890101 0.817455436623969  -1.442538962714197 0.1702583109259658 0.9778387525341716  0.5916715253007025 1.35922078290025 1.616040581602528  1.13378064835715 1.644358907156259 1.504736713985521  0.9802837104947404 1.015623498320987 1.932926185769896  -0.6020906612473962 -0.7932912835157278 0.5300545641521022  -0.8836349378529436 -0.457975773256652 0.6404787520590902  -1.023790947274213 -0.8542189253140726 0.4828357610848663  -0.602090661247396 -0.793291283515728 0.9479788500445958  0.6403047911642088 -1.885696230283868 3  0.1878647545340524 -1.981496936684592 3  -0.07495270366908996 0.9926178030302176 2.335678285116733  -0.1633239734712831 1.457514625388545 1.969260541812861  0.1736639328492305 1.982895595541155 1.940581159545814  -1.851925440117959 0.7516321667079673 1.81593851648282  0.9314397286268589 1.185469520867052 0  -1.493079834035256 -0.02565043060049582 0.4708275303802578  -1.940494357883519 -0.4596595737911316 0  -1.873203290925756 -0.6814884929589626 0.7907882208455987  -0.9408192553364747 -0.3268406500285767 1.845715925535895  -1.441806623388049 -0.4387237814713535 2.034006661436112  -0.2308620053190963 -1.551539094294586 1.717794458136412  0.6612847082440421 -1.340114905463987 1.108893916461269  0.3402362675669802 -0.9367557391813275 1.488714204061065  0.5360331878793529 1.383554395144927 3  0.5013469316464557 1.927848636129754 3  0.9318504505456354 1.758771734451193 3  -1.429512709177072 -0.3562124671024821 1.118349919785871  0.7623538123515461 -1.256718477748746 2.327019461856683  0.3106111190640441 -0.9457424297310684 2.455385688454125  1.442193373962851 0.348801655142766 0  1.28393644087122 0.6551747871608027 0.5464156047922772  -0.7378844931157909 0.6696040306912336 1.328661823726752  -0.9726455044974873 1.137273922375865 1.073924182966422  -0.4172064841849356 0.905426576866573 1.472187054373984  -0.5041753880756408 0.8589407292555569 0.7961323206085094  -0.4857392175468291 -1.371645797971567 0.9777955730243429  -0.08925624373007968 -0.9912090272966354 1.19456677684017  -0.4903859489869041 -0.8663113380070018 1.393053778537583  -0.1244862568658107 -0.9877391738626058 1.721971119438714  0.4218757816223546 1.951955945932026 1.52996483538921  0.06424814067857221 -1.462513542149503 0.8252938567089958  -0.2165167111830255 -1.978674965265306 1.059418840454187  0.08389629142111744 -1.655366426983338 0.4668966795233791  0.791196862407529 -1.833952643622447 0.6178951048582574  0.5289722636881395 -0.8456865231038897 0  -0.8598386698837637 0.5024954593186663 2.384476326122496  -1.415649600564344 1.412463744774179 1.124111047366489  -1.669846618080803 1.098217641777694 1.495259244783022  -1.669846618080803 1.098217641777694 0.7844479410434644  -1.302506330247836 0.7314384720123622 1.10539181245277  -0.9967945349396865 0.03254563292889093 0.6355050416165856  -0.9916319741441293 0.08496199232257164 1.271933936467721  -1.98098155916357 -0.1930974703189275 1.399842543598607  0.03296184272064258 -1.996753541853206 1.470035164610787  -0.8598386698837638 0.5024954593186663 0.7531117329128125  -0.1161671093212523 -1.988558538379005 0.5893077665132739  -0.5709179202917509 -1.906744507448919 0.7425624981256993  0.7876799948882367 0.6089280362230858 0.7814979844598379  -1.174791349590177 -0.9094291444928995 0.8802318284181406  -0.8667404926794215 -0.4895830570665023 1.393053778537582  -1.392669400495818 0.5227178203765839 0.5650798974098937  -1.524758301142871 1.279514408446921 0  -1.779307272275358 0.8934311615112988 0  1.779059765191092 -0.8938942146969457 1.01238676768993 
[...]
<PointData  Scalars="f_10"> 
<DataArray  type="Float64"  Name="f_10"  format="ascii">8.5773475630251339e-01  7.4305869163787219e-01  7.1490126478913041e-01  6.7554155958633766e-01  6.1458314234305600e-01  7.8000115919643653e-01  6.6830799076872915e-01  6.5486472660494977e-01  3.9737608104380384e-01  5.0154039232442316e-01  2.7073795040512982e-01  3.7557648891815804e-01  1.7836618925946482e-01  0.0000000000000000e+00  1.9972434985082779e-01  2.6244591389053479e-01  7.4360519687883542e-01  8.2047901023299441e-01  8.0059734693007334e-01  8.6222092048906751e-01  2.2373745859964106e-01  1.4922271231224435e-01  3.0115641146446448e-01  6.9481672756166624e-01  8.5980180740339174e-01  7.8998163546668587e-01  1.0000000000000004e+00  8.4921018298973261e-01  1.0000000000000004e+00  1.0000000000000004e+00  5.8474027139162521e-01  5.9545274705060292e-01  4.7693290835447527e-01  6.7171941873078034e-01  5.6701616039852965e-01  5.2682566302254752e-01  6.6675124893287496e-01  5.0444557864793715e-01  2.0439699203618014e-01  0.0000000000000000e+00  1.8586614192519502e-01  8.6364539315833588e-01  7.5318247751734080e-01  1.0000000000000004e+00  1.0000000000000004e+00  5.8993385629682626e-01  4.9857757319294926e-01  6.3150579886710834e-01  4.9196284261440570e-01  0.0000000000000000e+00  0.0000000000000000e+00  0.0000000000000000e+00  7.4446668529250704e-01  8.2944372299662550e-01  1.0000000000000004e+00  1.0000000000000004e+00  6.9130398171301055e-01  6.2640956285199845e-01  5.1728551901499564e-01  6.4809087524335296e-01  3.3486250827635078e-01  5.4519398251345019e-01  4.8367340835942318e-01  1.0000000000000004e+00  1.0000000000000004e+00  7.6906375401177218e-01  8.3717333627370460e-01  3.7618393740400957e-01  5.3683614172096006e-01  4.3237768812436900e-01  6.6217612949907900e-01  5.2299622991556016e-01  6.9802132766799219e-01  5.6181935316218778e-01  3.4952609250875899e-01  5.0807162649495241e-01  4.3840244585061561e-01  8.5426293183979529e-01  7.5245771198591027e-01  8.0487451221089923e-01  7.1518369367250578e-01  8.4050162090505509e-01  7.7206954924172022e-01  8.0739841376085009e-01  1.0000000000000004e+00  7.9997991671865099e-01  1.0000000000000004e+00  8.1515578241386688e-01  8.1577850997699886e-01  6.6840853316533466e-01  8.2485944850950177e-01  8.0465371265112051e-01  1.0000000000000004e+00  1.0000000000000004e+00  2.3995891984255191e-01  0.0000000000000000e+00  0.0000000000000000e+00  1.0000000000000004e+00  1.0000000000000004e+00  1.0000000000000004e+00  0.0000000000000000e+00  1.6218397199127516e-01  0.0000000000000000e+00  0.0000000000000000e+00  7.3564069135926891e-01  1.0000000000000004e+00  1.0000000000000004e+00  0.0000000000000000e+00  1.8192949835918631e-01  0.0000000000000000e+00  0.0000000000000000e+00  1.6998771676545180e-01  2.7489345974198032e-01  0.0000000000000000e+00  1.9392039577364506e-01  8.1254357083755113e-01  1.0000000000000004e+00  1.0000000000000004e+00  1.9428905505825067e-01  2.7152247895665355e-01  3.2607314359957029e-01  5.3851190408126159e-01  5.0105664886663437e-01  6.4417590022351423e-01  1.7774617000169127e-01  2.1508413185975409e-01  1.6117921452767012e-01  3.1648860844403121e-01  1.0000000000000004e+00  1.0000000000000004e+00  7.7774725372462317e-01  6.5657374158292836e-01  6.4757905812237393e-01  6.0467118685680643e-01  0.0000000000000000e+00  1.5699263774416858e-01  0.0000000000000000e+00  2.6325513747607526e-01  6.1515381577045414e-01  6.7794750057067388e-01  5.7280531558909686e-01  3.6935927036676058e-01  4.9645887454836296e-01  1.0000000000000004e+00  1.0000000000000004e+00  1.0000000000000004e+00  3.7285464768226417e-01  7.7583997310333086e-01  8.1777790497453162e-01  0.0000000000000000e+00  1.8187414109690531e-01  4.4258958918058094e-01  3.5780016978611456e-01  4.9134246936821452e-01  2.6533003909584352e-01  3.2576536972358350e-01  3.9779980368390222e-01  4.6416804401928141e-01  5.7441259881033990e-01  5.0977425785314157e-01  2.7482162728956472e-01  3.5218310889094312e-01  1.5530846102874479e-01  2.0548733565497518e-01  0.0000000000000000e+00  7.9399057468259071e-01  3.7330010128341945e-01  4.9849243888923211e-01  2.6170104107515196e-01  3.6839392139265315e-01  2.1367496504465233e-01  4.2332638156410396e-01  4.6753380761573371e-01  4.8992187530800280e-01  2.5229005271380806e-01  1.9528131006718707e-01  2.4673828976089160e-01  2.6043170914160257e-01  2.9345160233201001e-01  4.6426340659998883e-01  1.8852909084350958e-01  0.0000000000000000e+00  0.0000000000000000e+00  3.3801577488332485e-01  1.0000000000000004e+00  8.4959905690252224e-01  1.0000000000000004e+00  1.0000000000000004e+00  2.7212665508782202e-01  0.0000000000000000e+00  1.7990396703984332e-01  0.0000000000000000e+00  0.0000000000000000e+00  1.3574513240286523e-01  2.6142984434119115e-01  0.0000000000000000e+00  1.0000000000000004e+00  1.0000000000000004e+00  1.0000000000000004e+00  1.0000000000000004e+00  0.0000000000000000e+00  0.0000000000000000e+00  1.8915274996158349e-01  1.6323058341213045e-01  2.8449515993434971e-01  1.6388498265466139e-01  2.0007919547711031e-01  6.1258125779145900e-01  7.0120087836728484e-01  4.9802055800741013e-01  0.0000000000000000e+00  4.2145080506006899e-01  3.1639251595196938e-01  8.1676606110572658e-01  1.8931098895658938e-01  0.0000000000000000e+00  1.7029803779461822e-01  1.9986203892333695e-01  2.4920535734738627e-01  5.2630971726106646e-01  4.3467866445489955e-01  4.6777681360564521e-01  1.9122022305437217e-01  1.9987290911725122e-01  3.5181368264886026e-01  1.0000000000000004e+00  0.0000000000000000e+00  0.0000000000000000e+00  7.7349490388755726e-01  1.0000000000000004e+00  1.0000000000000004e+00  1.0000000000000004e+00  1.0000000000000004e+00  1.0000000000000004e+00  1.0000000000000004e+00  1.0000000000000004e+00  8.2544508586879783e-01  7.7731806108659662e-01  8.0467678635851991e-01  6.9976575224520898e-01  1.0000000000000004e+00  7.6061335745541325e-01  3.3314336795064803e-01  1.0000000000000004e+00  8.0000855174190000e-01  8.2666029637264737e-01  6.9294736766354537e-01  7.9892790978084960e-01  1.0000000000000004e+00  7.3701362847009178e-01  0.0000000000000000e+00  0.0000000000000000e+00  2.0701923394844535e-01  6.2594861797894996e-01  3.6830758857827872e-01  6.3590481358267426e-01  1.0000000000000004e+00  1.0000000000000004e+00  1.0000000000000004e+00  0.0000000000000000e+00  2.8416174609158446e-01  4.0146049234378017e-01  6.9370240065046385e-01  1.0000000000000004e+00  4.0635526157490393e-01  0.0000000000000000e+00  0.0000000000000000e+00  1.8794702333701230e-01  8.2633290723286767e-01  1.0000000000000004e+00  3.0509873141483224e-01  2.2631839349902688e-01  0.0000000000000000e+00  0.0000000000000000e+00  5.8661579636597150e-01  3.1571662385190852e-01  3.5533948209887084e-01  1.9887018712586352e-01  0.0000000000000000e+00  0.0000000000000000e+00  0.0000000000000000e+00  0.0000000000000000e+00  8.1203525130843346e-01  5.9421821826830512e-01  3.6261620353434237e-01  2.2643782952282521e-01  4.7366554810436495e-01  1.0000000000000004e+00  4.9533633637610758e-01  5.3209415631392476e-01  6.4212717112154405e-01  6.7325580057786072e-01  3.4244944642300618e-01  6.2823532945160288e-01  5.3267224555780979e-01  0.0000000000000000e+00  1.6370487518369189e-01  0.0000000000000000e+00  6.2614766203751704e-01  5.0288947823367058e-01  7.3793604231856069e-01  8.1715060459332312e-01  7.1978354179505344e-01  3.6927958892544083e-01  7.7896556797737893e-01  1.0000000000000004e+00  0.0000000000000000e+00  1.0000000000000004e+00  1.0000000000000004e+00  0.0000000000000000e+00  0.0000000000000000e+00  0.0000000000000000e+00  0.0000000000000000e+00  1.9527778596056455e-01  3.5778544388056260e-01  0.0000000000000000e+00  0.0000000000000000e+00  0.0000000000000000e+00  0.0000000000000000e+00  0.0000000000000000e+00  0.0000000000000000e+00  0.0000000000000000e+00  1.0000000000000004e+00  1.0000000000000004e+00  1.9976612370947616e-01  0.0000000000000000e+00  7.7900926746773291e-01  1.0000000000000004e+00  1.8469807468240670e-01  0.0000000000000000e+00  0.0000000000000000e+00  4.8027874791439956e-01  1.8570395153094985e-01  5.1240724283749539e-01  0.0000000000000000e+00  0.0000000000000000e+00  4.6895240030529411e-01  8.1267588227639431e-01  1.0000000000000004e+00  8.0437465740405345e-01  1.7289285552924416e-01  0.0000000000000000e+00  1.0000000000000004e+00  8.0005855151561134e-01  0.0000000000000000e+00  1.0000000000000004e+00  8.0429226528823561e-01  1.0000000000000004e+00  1.0000000000000004e+00  1.0000000000000004e+00  6.2698164138622714e-01  4.5957807045740962e-01  2.7382417240812490e-01  6.3055745989625267e-01  0.0000000000000000e+00  0.0000000000000000e+00  1.0000000000000004e+00  0.0000000000000000e+00  0.0000000000000000e+00  4.4694602491868546e-01  1.0000000000000004e+00  1.0000000000000004e+00  8.1852655763145854e-01  1.0000000000000004e+00  1.0000000000000004e+00  1.0000000000000004e+00  7.8041553745821002e-01  6.4493251067502833e-01  0.0000000000000000e+00  6.7997798342289506e-01  </DataArray> 
</PointData> 
</Piece>
</UnstructuredGrid>
</VTKFile>