<?xml version="1.0"?>
<VTKFile type="UnstructuredGrid"  version="0.1"  >
<UnstructuredGrid>
<Piece  NumberOfPoints="954" NumberOfCells="3996">
<Points>
<DataArray  type="Float64"  NumberOfComponents="3"  format="ascii">-0.7816643063515567 -0.6162581739138697 0.6026581783062313  -0.9371087481055426 -0.8922251360447764 1.088664921171928  -1.16338190992118 -0.9589332540313191 0.8328925187681296  -0.7884716442301241 -1.095831524663976 0.8509538879258189  -1.467388403511188 -1.349419830973749 1.854699578985386  -1.691847127104035 -1.057057584402842 1.792481564850882  -1.589966200280415 -1.200058353451638 2.140554217345306  -1.217866055289757 -1.018367432924538 2.006040510804831  0.9975900863756388 -0.02446826364756045 1.820162622298472  1.306565176860637 0.2424610329078545 1.813117726371024  0.975916883062993 0.2111392772324619 1.907184550331901  0.9951802512173802 -0.04893573061540975 2.071059000858836  0.3640039983156202 -0.9295458768818553 1.492983459038144  0.5487107599987853 -0.835136077018926 1.674549895774226  0.1549142625105386 -0.9847422768852969 1.663462742699079  0.5238237203988727 -1.388038725607619 1.724904091630777  -0.8262722068337489 1.214214377293678 0.7319552811989505  -0.6062226566438368 1.439697221576838 0.430144653775685  -1.085640909602985 1.676569021482061 0.5128342442179297  -0.8703772905936825 1.791629823007596 0.6925816834223161  0.3448925070327128 -0.935343284381316 2.53156913794189  0.6667024173463881 -1.138373263222274 2.268151214422505  0.534251333889346 -1.150859463366025 2.723599234707922  0.2758048264117831 -1.271826340920732 2.659392961480815  -1.825220060093612 -0.8075343770849391 3  -1.50185727969032 -0.9077313623873615 2.669221514509792  -1.753095244320935 -0.9424704166201683 2.487402243689921  -1.884027970933281 -0.6458043052210252 2.465159781195152  -1.643650479804342 -0.2510722380505768 0.8627116672388495  -1.946726160601798 -0.4391160733837046 0.8111792958218693  -1.829876992465486 -0.7988218694145495 1.130912378998781  -1.964638033666885 -0.3590360694210094 1.131809366286952  1.260707342937499 0.7300631062328511 0.9419800973833657  1.536685347343925 0.4564202830929406 0.9144532787471632  1.521730041657627 0.5767379203131159 1.274706434082253  1.210151134424121 0.4870046897190103 1.173712518554512  0.7268010615927014 -1.314753802040943 2.576584690100681  0.5974423874163273 -1.222689372975486 3  0.7189424133110188 -1.466689219514399 3  1.224428711902422 0.8572007005199244 0  1.42566686790015 0.4574536675564076 0  1.712525035448802 1.018371938858741 0  1.554737943054615 0.6015453838148427 0.2951785074342577  1.225257003058708 1.087822772977291 1.802378243505504  1.291716056056339 1.514744667736657 1.566197140660724  1.229206351219692 1.160190834715364 1.468546914215901  0.8002820848895167 1.245517446431679 1.806354342913812  0.6749552035345591 -0.7334928990572152 1.451553990159651  0.7293269091082188 -0.6800314769749751 1.813533847354121  0.9955766913757021 -0.8275633668952809 1.576748496695827  -1.135021910619427 -1.16626625365506 3  -1.215713265800185 -0.9538308876182483 2.553540915053693  -1.12411020791712 -1.278183909038757 2.663712644079244  -1.493077796739337 -1.318117214755033 3  1.628955077327481 -0.2793896626513032 0.9677355255378075  1.30638307684875 -0.09277109321427224 1.289033245456324  1.342598497655672 -0.06787414183251217 0.940529907570455  1.427438726121689 -0.4205119031039213 1.226491637279935  1.025116009025532 1.341367238375896 2.03791273432409  0.937047807243359 1.139143600548469 2.292287176494212  1.026500503865961 1.708180226933143 2.203820081032769  0.724634143467811 1.448197965544568 2.145869248227742  -1.481565705491017 0.68148072401284 3  -1.248180643451476 0.8184088958206328 3  -1.321792150157253 1.072788000801277 2.704729680744416  -1.744079642349356 0.9593374215620627 3  0.3251415674980697 1.44307702781416 2.096353265541737  0.5681290962822957 1.549327866949738 1.773146020401223  0.5558257833500052 1.911322657138745 1.900059277335361  -0.2735891889529415 0.9569729094510142 2.12552337428227  -0.03919175637006414 0.9961399489150803 2.208831768913183  -0.06873693303092365 1.389446822062717 1.983219617280064  -0.4288678167384623 1.239012283384815 2.241953490964321  -1.019261186056348 -0.8585171825553823 1.460518224155073  -1.205148256874422 -0.3774773616642302 1.56089248708819  -0.7951296159210844 -0.5998506467302667 1.75433246864053  -0.9179380497992715 -0.3937991646901919 1.364903497849802  -1.002683651764804 1.113111278796196 0  -0.9738863299386127 1.29796209853297 0.3548698454754697  -1.438479480639637 1.384645455413685 0  -1.345495349846485 1.110404825705179 0.2846011875062693  0.3992169207580993 -1.237099101505668 1.191803284662142  0.5008599238356093 -1.41435896777325 0.8102226109784102  0.4927506055834525 -1.603916414605352 1.164357972639447  0.1225121416717126 -1.277591265884165 1.003367433258137  1.258308491177613 1.542161547685859 2.27170526119972  -1.507577376660981 0.8231364920143988 2.048252101852508  -1.218231011818699 0.5181979106001584 2.02333925239462  -1.367558477847229 0.6445551758769376 2.337856785046428  -1.638966401215254 0.4151887879065263 2.165380235642512  -0.9694713875451534 1.385937676744171 2.106230155188507  -1.009694780086552 1.717163073440949 2.062825459032976  -1.258981000836231 1.541609633272406 2.455411461786796  -1.009694780086552 1.71716307344095 2.59683869758662  0.3817783677305346 -0.9241540808666293 2.018511703932645  0.7107646604222453 -1.050939884317248 1.921355779877147  -0.844926995554161 1.068622128813088 1.069123252014927  -0.3414150989220618 0.9363981445992313 1.071005738840007  -0.4922678887532528 1.230649576046017 0.6724026039041537  -0.3788887885544553 1.455913956808009 0.8999474566814727  0.6767994715531577 0.7319793474097477 3  1.027959644058885 0.7192570667302717 2.691725847794147  0.8850474053629072 1.047062943728529 2.678047646755426  1.01830748860629 0.8009307475729233 3  -0.8751712455348578 -1.463353711535435 2.471600042955393  -0.8919454071444382 -1.780101424529733 2.624632389090897  -0.6267722627066723 -1.889801277912284 2.473483288367779  -0.4235675924273373 -1.68416512920486 2.651495969977106  -1.624080463099287 -0.1727621270770202 0.5029056747682774  -1.98226447380557 -0.1800718193659471 0.3554316398759313  -1.940969068520443 -0.4580946625441093 0.486839458939381  -1.982264473805573 -0.1800718193659474 0.6182472780028307  0.4443099137545717 -1.629069757836743 1.49943402743056  0.2355468326973051 -1.976800661891307 1.867626148715342  0.1254157448558533 -1.703756195858605 1.588785014067285  0.3805775488420485 -1.962516383128317 1.496847999729285  -0.8110786017792939 1.047269901791205 2.121104941428879  -0.959866315318026 0.9405257741639269 1.626839118754434  -0.892990212372111 1.21769769929962 1.825057446330698  -0.7247392452730292 0.6856215615323663 1.96900354591404  0.703832443164323 1.296774617755608 0  1.085839958626342 1.676462627562471 0  0.815967879555884 1.820712259107823 0  0.7210652289595565 1.382696465015165 0.4268810221756049  1.535543153705771 1.266373027576081 0  1.266959080528367 1.072837320342046 0.3070083336368682  -1.230947643491196 0.8176538316399466 1.805737396756329  -1.458253475485442 0.7179109713450691 1.446858482212952  -1.332861560589527 1.031877019211556 1.55094688052432  -1.102503165573828 0.9305784620941925 1.310385370874145  -0.8314696123025459 0.5555702330196011 2.237427138497466  -1.226372019819206 0.3270480739075828 2.370012777508555  -0.965058522091939 0.246934496227205 2.15304399136757  -1.136987574194024 -0.6174439811883486 1.914508136383919  -1.31118241156544 -0.7076136899520298 1.591462913785664  -1.508823376803995 -0.6604528802020468 1.900797887321078  -0.8820462338257501 0.460948029436811 1.506002633699789  -0.9128204895243113 0.4033734465540432 1.848051248605139  1.43673812410744 -0.7950599575217407 3  1.523639262547009 -0.8469867907394436 2.727557798938584  1.281126403723213 -0.9064542725908143 2.578816114476334  1.191083185303006 -0.6529289547279682 3  -1.472188914050033 0.3488894112955785 1.813515171551642  -1.25543923261207 0.4266477155525202 1.530718952541371  1.63380507737217 -0.4378909949413543 0.3325167026671486  1.970041898255386 -0.3041697115023912 0.6834035408271888  1.659758281800898 -0.09114527595580398 0.2929982176124458  1.65659855429246 0.01793192137783933 0.7080773934678531  -0.5575763919389134 -1.579221425130222 1.624763931340798  -0.6394103950273418 -1.885967542385817 1.772463933756891  -0.2307630709251082 -1.977271821301577 1.471181044419264  -0.3806512627115023 -1.630068972856112 1.909809739719508  -1.51628174194805 0.2500805710234424 2.548357219803956  -1.985856966579941 0.1435966281114978 2.320606943969726  -1.718207515630612 0.1656325407329907 2.730245358308145  -1.979306087000891 0.2101088246663099 2.626138783003607  1.2560895533838 0.3755624603121517 0.2715940152176433  1.689400724141101 0.2795524307698475 0.3175238567445141  1.312522086149463 0.04418798656386991 0.5971271750425831  0.1021569525316506 -1.327805660959527 1.653761852414816  0.1825353671571631 -1.449660084558329 1.338705133025003  -1.629173242682837 -0.4396626659265072 2.682257104076729  0.9909472039646317 -1.396967610995839 1.453240451611627  1.092491429426801 -1.237240286631584 1.100137911566619  1.249062703564479 -1.017640071547412 1.395575611324744  1.327968818890031 -1.484992794170104 1.416664223210889  0.1442795150810441 1.484939248488856 1.010602050919654  -0.009012304300633239 1.708706554924846 0.7398374173822192  -0.1118209022403694 1.988986602413682 0.9801646178047809  0.182152240719404 1.982059570186894 1.044691886492768  1.465402221623878 -0.04489871403178196 1.706566879402843  0.9879066000062189 0.122786350702366 1.431478669349838  1.240324522846978 -0.3320077038749461 1.621876263441188  -1.22247303577894 0.3326178634798861 0.9654715603529608  -1.518961711203538 0.07336982528669388 0.767522402488244  -0.9682729950644814 0.23633779896216 0.705460381041467  -0.9988204316776866 -0.01197635816027369 0.9202779528728253  1.036045472981225 -1.13159814216014
[...]
<PointData  Scalars="f_10"> 
<DataArray  type="Float64"  Name="f_10"  format="ascii">-2.7755575615628914e-17  3.8453307565567046e-01  6.0347402487309321e-01  4.4444257060421744e-01  1.0000000000000000e+00  1.0000000000000000e+00  1.0000000000000000e+00  6.7707871576412126e-01  -2.2204460492503131e-16  4.2256625044293850e-01  -2.2204460492503131e-16  -2.2204460492503131e-16  -1.6653345369377348e-16  -1.1102230246251565e-16  -1.1102230246251565e-16  5.7992441182737187e-01  5.6492639342104101e-01  6.5413533776060240e-01  1.0000000000000000e+00  1.0000000000000000e+00  -1.1102230246251565e-16  4.1377734934543042e-01  3.5466259642492126e-01  3.9115933815886683e-01  1.0000000000000000e+00  8.1964032986263913e-01  1.0000000000000000e+00  1.0000000000000000e+00  7.4213277295656166e-01  1.0000000000000002e+00  1.0000000000000000e+00  1.0000000000000000e+00  5.5342697308645628e-01  6.9158065950284975e-01  7.1326906047517280e-01  3.9731500382354240e-01  5.9812545350692115e-01  4.5508568943309613e-01  7.1672349334285856e-01  5.8982685417781811e-01  5.9208401333806238e-01  1.0000000000000002e+00  7.4628648529159058e-01  7.2563121788143137e-01  1.0000000000000000e+00  7.6888405195277487e-01  5.7856543997102561e-01  -1.1102230246251565e-16  -1.1102230246251565e-16  3.8615277878353826e-01  7.1111535117909774e-01  6.3849488022370715e-01  7.7582182128787880e-01  1.0000000000000000e+00  7.3488873399261245e-01  4.0142220847927190e-01  4.4045428175107304e-01  5.8435859754380814e-01  7.6719322678797219e-01  5.7294673033733534e-01  1.0000000000000000e+00  7.0621616680822419e-01  7.1400024315872734e-01  5.8834312862359184e-01  7.7569809372727261e-01  1.0000000000000000e+00  5.7666309515505876e-01  7.3352845891840868e-01  1.0000000000000000e+00  -2.2204460492503131e-16  -2.2204460492503131e-16  4.8984487810676519e-01  4.0237208209005015e-01  4.2780482475584275e-01  3.5104169599622681e-01  -1.1102230246251565e-16  -5.5511151231257827e-17  5.9291667855858121e-01  7.0718468204951868e-01  1.0000000000000002e+00  8.1089619302691862e-01  3.9215110596185448e-01  5.9538561315223104e-01  7.5620224201840713e-01  3.7379906348580499e-01  1.0000000000000000e+00  7.8971338607142705e-01  4.1703074328304862e-01  6.0704071374203616e-01  7.6800654149200265e-01  7.6633029574297917e-01  1.0000000000000000e+00  1.0000000000000000e+00  1.0000000000000000e+00  -1.1102230246251565e-16  3.5673482172869037e-01  4.5875071260280820e-01  -1.1102230246251565e-16  4.1845723836891724e-01  6.0289887671822329e-01  -2.2204460492503131e-16  3.3922309268400552e-01  4.6760668867544108e-01  3.8569593633678956e-01  7.7853117354737966e-01  1.0000000000000000e+00  1.0000000000000000e+00  8.0480647393510152e-01  7.1683032956638471e-01  1.0000000000000002e+00  1.0000000000000002e+00  1.0000000000000002e+00  7.6551328203385860e-01  1.0000000000000000e+00  7.8267872099504698e-01  1.0000000000000000e+00  4.1826375859799025e-01  4.4037360133534365e-01  6.0428606156863207e-01  -1.1102230246251565e-16  5.7122519118409887e-01  1.0000000000000002e+00  1.0000000000000002e+00  6.5087631619991249e-01  1.0000000000000002e+00  7.4056439966171994e-01  5.7357237745761436e-01  7.1056511693887181e-01  7.6255085282057999e-01  5.4061754593999822e-01  -2.2204460492503131e-16  3.5549008624881678e-01  -1.1102230246251565e-16  3.8526245410332544e-01  5.8609992728452365e-01  7.3039787199575668e-01  -1.1102230246251565e-16  -2.2204460492503131e-16  7.2425698549346051e-01  8.0980924889033523e-01  6.6016438673467615e-01  4.5255697957394880e-01  6.0843263165011663e-01  4.2055257332565943e-01  7.6755494773936772e-01  1.0000000000000002e+00  7.4241913540103643e-01  7.3829256113896480e-01  7.5462810950577186e-01  1.0000000000000000e+00  1.0000000000000000e+00  7.5409191866541092e-01  6.3042035391909224e-01  1.0000000000000000e+00  7.9626170700889309e-01  1.0000000000000000e+00  4.0176558031620746e-01  7.8484278470613855e-01  4.0627357138565501e-01  4.2615319493862802e-01  5.5764624971466992e-01  7.6352104974755086e-01  7.8556469928362238e-01  7.3280804224443363e-01  6.9894979959672010e-01  1.0000000000000000e+00  5.8829323827840474e-01  7.8206881018056018e-01  1.0000000000000002e+00  1.0000000000000002e+00  5.6206256219942141e-01  -1.1102230246251565e-16  3.7364315391594505e-01  3.5505611404761500e-01  6.1502795891761464e-01  -5.5511151231257827e-17  -1.1102230246251565e-16  6.2741177992937114e-01  1.0000000000000000e+00  1.0000000000000000e+00  1.0000000000000000e+00  7.5442613341809661e-01  1.0000000000000002e+00  5.9534624567906658e-01  6.7865081885458101e-01  5.9211928398221370e-01  1.0000000000000000e+00  1.0000000000000000e+00  5.8961917124754404e-01  3.8091199432005696e-01  -2.2204460492503131e-16  5.8613297481506565e-01  4.0021149157386082e-01  5.6284696856510097e-01  -1.1102230246251565e-16  -1.1102230246251565e-16  1.0000000000000002e+00  1.0000000000000000e+00  7.0404625741302618e-01  5.9149276284282926e-01  7.1392494922086192e-01  7.7069220335008470e-01  7.4322621982772263e-01  1.0000000000000002e+00  1.0000000000000002e+00  6.0162401338253624e-01  1.0000000000000002e+00  7.7770069042943479e-01  1.0000000000000000e+00  4.6252033019235739e-01  3.5761292420736601e-01  5.5853486249794382e-01  5.9038116500864768e-01  -1.1102230246251565e-16  -1.1102230246251565e-16  -5.5511151231257827e-17  3.6509741765443554e-01  -1.1102230246251565e-16  3.9013370540263104e-01  -1.1102230246251565e-16  4.2276040999529818e-01  5.8370816867901043e-01  4.0007258045258298e-01  6.0664139277868367e-01  4.2124238924515678e-01  -5.5511151231257827e-17  1.0000000000000000e+00  1.0000000000000000e+00  -2.2204460492503131e-16  -2.2204460492503131e-16  -2.2204460492503131e-16  3.9589135612648452e-01  4.0854195074097499e-01  4.1014826972474444e-01  3.7295499697042156e-01  5.9278267113529826e-01  -2.2204460492503131e-16  1.0000000000000000e+00  1.0000000000000000e+00  1.0000000000000000e+00  6.8553999117236930e-01  7.3242851430226852e-01  6.7322469395697226e-01  -1.1102230246251565e-16  1.0000000000000000e+00  1.0000000000000000e+00  1.0000000000000000e+00  4.1804101781433228e-01  5.9224727172277514e-01  7.7011354344617833e-01  3.4083735383590491e-01  1.0000000000000000e+00  7.4679723685349464e-01  -1.1102230246251565e-16  -2.2204460492503131e-16  -1.1102230246251565e-16  5.8520072473933382e-01  0.0000000000000000e+00  0.0000000000000000e+00  -2.7755575615628914e-17  1.0000000000000002e+00  4.2412662683961633e-01  5.9194641433420692e-01  3.4579660654746236e-01  7.4615191318508534e-01  7.2173605218902914e-01  3.8610198258518014e-01  7.1582203006999690e-01  5.8076692885840953e-01  1.0000000000000002e+00  1.0000000000000002e+00  7.6214596214638419e-01  7.8419589945258872e-01  1.0000000000000000e+00  7.3670644306415745e-01  1.0000000000000002e+00  -1.1102230246251565e-16  3.3816004216121781e-01  5.8605371460646538e-01  5.9074615866987035e-01  6.1863386047997249e-01  4.1528806026636256e-01  3.9458617463954021e-01  3.8138294618051843e-01  5.9230481194599405e-01  -1.1102230246251565e-16  0.0000000000000000e+00  1.0000000000000000e+00  1.0000000000000002e+00  1.0000000000000002e+00  -1.1102230246251565e-16  3.5112297722246533e-01  5.7244096442865555e-01  7.6993819670599506e-01  4.2712110910446255e-01  1.0000000000000000e+00  7.4823842784908723e-01  7.3468641292780701e-01  1.0000000000000000e+00  4.1496863829514075e-01  3.8109413170620676e-01  5.7914170724219560e-01  -5.5511151231257827e-17  -2.2204460492503131e-16  3.6936483591220981e-01  -2.2204460492503131e-16  4.2825428306712537e-01  -2.2204460492503131e-16  5.7985150863127655e-01  1.0000000000000000e+00  1.0000000000000002e+00  7.3976352268608880e-01  1.0000000000000002e+00  1.0000000000000002e+00  1.0000000000000002e+00  3.8232279383425549e-01  7.5426795169183114e-01  5.9416893190361908e-01  6.1667851259723172e-01  1.0000000000000002e+00  1.0000000000000000e+00  7.4601340275182382e-01  1.0000000000000000e+00  1.0000000000000000e+00  1.0000000000000000e+00  7.4657869682526812e-01  1.0000000000000000e+00  1.0000000000000000e+00  7.8362085803461434e-01  7.6561690541080962e-01  1.0000000000000002e+00  6.0928974311434425e-01  5.7786245869196828e-01  7.8382717042305572e-01  1.0000000000000000e+00  6.5129784244483224e-01  1.0000000000000000e+00  1.0000000000000002e+00  7.0554619810221897e-01  1.0000000000000000e+00  1.0000000000000000e+00  1.0000000000000002e+00  -2.7755575615628914e-17  5.6483601403430828e-01  -5.5511151231257827e-17  -5.5511151231257827e-17  7.2134642266298998e-01  7.6925856631057654e-01  1.0000000000000000e+00  1.0000000000000000e+00  6.4716248903139650e-01  1.0000000000000000e+00  1.0000000000000000e+00  7.1802096011497796e-01  1.0000000000000002e+00  1.0000000000000002e+00  1.0000000000000002e+00  7.6886771482703231e-01  1.0000000000000002e+00  8.0133472259541461e-01  6.9770830699701092e-01  5.9110978329490127e-01  1.0000000000000000e+00  1.0000000000000000e+00  -5.5511151231257827e-17  -1.1102230246251565e-16  6.2014976384851739e-01  4.4070151401154323e-01  7.3279463187026050e-01  3.8178326796151113e-01  6.5873704428443680e-01  5.2840067822608516e-01  1.0000000000000002e+00  1.0000000000000002e+00  7.6195199279083758e-01  1.0000000000000002e+00  1.0000000000000002e+00  -5.5511151231257827e-17  3.7245157544219587e-01  -5.5511151231257827e-17  7.3265936544492782e-01  5.9249745161270173e-01  -2.2204460492503131e-16  7.4714564008459849e-01  1.0000000000000000e+00  1.0000000000000000e+00  1.0000000000000000e+00  -2.7755575615628914e-17  -2.7755575615628914e-17  3.9258865443570068e-01  -2.7755575615628914e-17  0.0000000000000000e+00  4.0235643682873179e-01  5.9277857401353651e-01  7.9657498980471375e-01  7.3486327555628894e-01  4.0986578693437231e-01  6.0168893665693068e-01  5.4992894761617439e-01  7.1584922688703545e-01  4.4597893860463372e-01  3.6230916183978618e-01  1.0000000000000000e+00  1.0000000000000000e+00  7.5427869618244758e-01  1.0000000000000002e+00  1.0000000000000002e+00  1.0000000000000000e+00  1.0000000000000000e+00  1.0000000000000000e+00  7.5009568996863984e-01  1.0000000000000000e+00  1.0000000000000000e+00  -2.2204460492503131e-16  -1.1102230246251565e-16  8.1971978298370918e-01  1.0000000000000000e+00  1.0000000000000000e+00  1.0000000000000000e+00  7.4908527136075398e-01  1.0000000000000000e+00  7.4076683956846967e-01  1.0000000000000000e+00  7.8028570882715131e-01  1.0000000000000000e+00  1.0000000000000000e+00  1.0000000000000000e+00  1.0000000000000000e+00  5.6411502021756699e-01  1.0000000000000000e+00  5.8963537196210869e-01  1.0000000000000002e+00  1.0000000000000002e+00  1.0000000000000000e+00  1.0000000000000000e+00  1.0000000000000000e+00  7.9452741293538243e-01  1.0000000000000000e+00  7.9603558326784030e-01  -2.2204460492503131e-16  -2.2204460492503131e-16  3.8248674277981165e-01  -2.2204460492503131e-16  -5.5511151231257827e-17  3.6371061695447016e-01  4.2464037146556810e-01  4.1729293190188810e-01  6.5238694636616390e-01  1.0000000000000000e+00  1.0000000000000000e+00  5.9181310576962676e-01  1.0000000000000002e+00  7.6594956516949209e-01  0.0000000000000000e+00  5.8636734181411354e-01  4.6412858567910248e-01  4.5126824087809481e-01  1.0000000000000000e+00  5.8299386201979564e-01  7.2586062398625861e-01  3.5499941780130129e-01  -5.5511151231257827e-17  -2.2204460492503131e-16  -2.2204460492503131e-16  5.8108843968286716e-01  5.9997240961791609e-01  5.8196385424961172e-01  4.4774608687302159e-01  -1.1102230246251565e-16  -2.2204460492503131e-16  4.0484534302832509e-01  7.5211339613083972e-01  6.3040169962557191e-01  5.9393287688517926e-01  1.0000000000000000e+00  1.0000000000000000e+00  7.6596176803867233e-01  5.8997298337184156e-01  1.0000000000000002e+00  1.0000000000000000e+00  1.0000000000000000e+00  5.9332721967058921e-01  7.5916302829570947e-01  7.7211929264040668e-01  1.0000000000000000e+00  1.0000000000000002e+00  1.0000000000000002e+00  4.4686854981971136e-01  -2.2204460492503131e-16  -1.1102230246251565e-16  -5.5511151231257827e-17  5.5845140290977469e-01  -1.1102230246251565e-16  7.8370424614778145e-01  4.7554262384113821e-01  6.3004154404560719e-01  5.5223121551955745e-01  7.6376531350956567e-01  6.7998407459964705e-01  7.5374684601643116e-01  4.1644498856884782e-01  6.1773688835888696e-01  4.4989600872068553e-01  1.0000000000000000e+00  -1.1102230246251565e-16  4.2476365193555865e-01  5.8786230440769749e-01  7.1325672209916124e-01  -2.7755575615628914e-17  -5.5511151231257827e-17  4.3116914087799663e-01  7.1287177533003265e-01  3.4953020853740507e-01  4.0642611540753015e-01  -5.5511151231257827e-17  4.5787736276616453e-01  -2.7755575615628914e-17  -1.1102230246251565e-16  -5.5511151231257827e-17  1.0000000000000000e+00  8.0455952273705778e-01  3.7736477578340666e-01  -2.7755575615628914e-17  -5.5511151231257827e-17  3.7841711427467994e-01  5.9203923335275321e-01  1.0000000000000000e+00  3.8643956556174575e-01  7.2422199257425990e-01  5.8969251275592227e-01  5.8916569035158450e-01  7.5725518306635131e-01  1.0000000000000002e+00  1.0000000000000002e+00  1.0000000000000002e+00  3.9525193118191337e-01  3.7921718558722078e-01  1.0000000000000000e+00  -2.7755575615628914e-17  3.8780027318329890e-01  -5.5511151231257827e-17  1.0000000000000002e+00  1.0000000000000002e+00  3.9408023472216536e-01  -2.2204460492503131e-16  -2.2204460492503131e-16  5.9632363003697764e-01  1.0000000000000002e+00  1.0000000000000002e+00  1.0000000000000002e+00  7.6224208498661961e-01  4.2870154317612341e-01  6.9959102396010642e-01  4.0095695412975596e-01  1.0000000000000002e+00  1.0000000000000000e+00  6.6413243190946614e-01  6.1950646240397089e-01  4.1683675003501741e-01  -2.2204460492503131e-16  4.0596931052704394e-01  3.7173352723615449e-01  1.0000000000000002e+00  1.0000000000000002e+00  1.0000000000000000e+00  -1.1102230246251565e-16  6.9859873192095068e-01  1.0000000000000000e+00  1.0000000000000002e+00  5.8303005086008874e-01  5.8673799934178283e-01  7.1813009530313732e-01  4.2599459565834730e-01  3.4868424384873442e-01  1.0000000000000000e+00  -2.7755575615628914e-17  5.8548764455748270e-01  7.7425690770414202e-01  6.7830487732080103e-01  4.0305467664481676e-01  -5.5511151231257827e-17  -5.5511151231257827e-17  3.8294605213929600e-01  6.4761507122005746e-01  3.7608539639190930e-01  4.1092312628543759e-01  5.8802262252021409e-01  8.0055510050999457e-01  1.0000000000000000e+00  5.9309134957138454e-01  7.4277069236449322e-01  1.0000000000000002e+00  1.0000000000000002e+00  5.8867141769120224e-01  5.9155427588126519e-01  1.0000000000000002e+00  7.6734297172391708e-01  1.0000000000000000e+00  1.0000000000000000e+00  4.3323901806875625e-01  -2.2204460492503131e-16  1.0000000000000000e+00  4.4177382780841523e-01  -1.1102230246251565e-16  4.1300031367797552e-01  6.2210545614343249e-01  -1.1102230246251565e-16  -1.1102230246251565e-16  5.8161693333961106e-01  3.6596875414309665e-01  4.0351753388045675e-01  -5.5511151231257827e-17  0.0000000000000000e+00  -2.7755575615628914e-17  7.6110727876965600e-01  5.1731625395262792e-01  -2.2204460492503131e-16  -1.1102230246251565e-16  1.0000000000000000e+00  1.0000000000000002e+00  1.0000000000000002e+00  7.6177542053836400e-01  1.0000000000000000e+00  -5.5511151231257827e-17  -1.1102230246251565e-16  7.0963393107321326e-01  5.8306529280358721e-01  4.2672766923384592e-01  1.0000000000000002e+00  4.2581178582416784e-01  1.0000000000000000e+00  4.1168041871138272e-01  1.0000000000000000e+00  1.0000000000000000e+00  1.0000000000000000e+00  1.0000000000000000e+00  0.0000000000000000e+00  5.8413723402374440e-01  0.0000000000000000e+00  4.0852295886030915e-01  -2.7755575615628914e-17  7.4527298281920906e-01  1.0000000000000000e+00  7.5463554897022178e-01  1.0000000000000000e+00  1.0000000000000000e+00  6.0394796768713988e-01  3.8348167972943475e-01  7.0633402378986521e-01  4.3229242554369590e-01  -2.2204460492503131e-16  4.3341383825874974e-01  5.8516407436840312e-01  7.2074282549138191e-01  7.1294292900725464e-01  1.0000000000000002e+00  7.1107995082395103e-01  -5.5511151231257827e-17  7.6408394596969098e-01  5.9121779083434123e-01  1.0000000000000000e+00  -2.7755575615628914e-17  7.2386777318037288e-01  1.0000000000000000e+00  1.0000000000000000e+00  1.0000000000000000e+00  5.9074167215829299e-01  1.0000000000000002e+00  5.9226130208307137e-01  7.4288579513926689e-01  1.0000000000000000e+00  1.0000000000000000e+00  1.0000000000000002e+00  1.0000000000000002e+00  1.0000000000000000e+00  1.0000000000000000e+00  1.0000000000000000e+00  0.0000000000000000e+00  -2.7755575615628914e-17  6.9626820682250634e-01  8.1164994977348881e-01  1.0000000000000000e+00  1.0000000000000000e+00  1.0000000000000000e+00  1.0000000000000000e+00  1.0000000000000000e+00  1.0000000000000000e+00  1.0000000000000000e+00  -1.1102230246251565e-16  1.0000000000000000e+00  1.0000000000000000e+00  1.0000000000000000e+00  -2.2204460492503131e-16  1.0000000000000000e+00  1.0000000000000000e+00  -1.1102230246251565e-16  -1.1102230246251565e-16  1.0000000000000002e+00  1.0000000000000000e+00  1.0000000000000000e+00  4.4161871635842764e-01  -2.2204460492503131e-16  -2.2204460492503131e-16  5.9350391464619434e-01  4.5613271567899882e-01  1.0000000000000000e+00  1.0000000000000000e+00  6.0790825400679982e-01  1.0000000000000002e+00  1.0000000000000000e+00  7.5121473571126984e-01  1.0000000000000002e+00  5.8664746278419877e-01  1.0000000000000002e+00  1.0000000000000000e+00  1.0000000000000002e+00  7.7009097663434511e-01  0.0000000000000000e+00  5.9010587329610820e-01  7.6435425025323323e-01  4.6317419968345119e-01  -1.1102230246251565e-16  3.9785952959519227e-01  1.0000000000000002e+00  1.0000000000000000e+00  0.0000000000000000e+00  -1.1102230246251565e-16  1.0000000000000000e+00  1.0000000000000002e+00  7.1298205452386265e-01  1.0000000000000000e+00  1.0000000000000000e+00  7.1214744225107007e-01  5.9275782980355096e-01  5.9386741434225476e-01  6.0031578743233005e-01  1.0000000000000000e+00  1.0000000000000000e+00  1.0000000000000002e+00  1.0000000000000000e+00  1.0000000000000000e+00  1.0000000000000002e+00  -1.1102230246251565e-16  -2.2204460492503131e-16  -2.2204460492503131e-16  4.2616090891390729e-01  -1.1102230246251565e-16  1.0000000000000000e+00  5.9308965943289604e-01  1.0000000000000000e+00  -2.7755575615628914e-17  3.8820103794679423e-01  1.0000000000000002e+00  1.0000000000000002e+00  1.0000000000000002e+00  -1.1102230246251565e-16  1.0000000000000000e+00  1.0000000000000000e+00  -1.1102230246251565e-16  1.0000000000000002e+00  1.0000000000000000e+00  1.0000000000000002e+00  1.0000000000000000e+00  -2.2204460492503131e-16  1.0000000000000002e+00  -1.1102230246251565e-16  -1.1102230246251565e-16  -1.1102230246251565e-16  1.0000000000000000e+00  7.7472351193056654e-01  4.2398092454016989e-01  7.4372640958985792e-01  1.0000000000000002e+00  1.0000000000000002e+00  1.0000000000000000e+00  6.4486242763990353e-01  7.3526090150203205e-01  7.4992891097887271e-01  1.0000000000000000e+00  4.6143753597321258e-01  1.0000000000000002e+00  1.0000000000000000e+00  5.9329438138967405e-01  7.9586165427053157e-01  1.0000000000000000e+00  4.7154089032265911e-01  7.1678303912330810e-01  1.0000000000000000e+00  6.7759515329602316e-01  1.0000000000000000e+00  -2.2204460492503131e-16  3.8343219895895575e-01  7.8709566289313460e-01  -2.2204460492503131e-16  -2.2204460492503131e-16  1.0000000000000000e+00  1.0000000000000000e+00  7.1589922822548901e-01  1.0000000000000002e+00  3.8966805921455194e-01  -5.5511151231257827e-17  -1.1102230246251565e-16  -5.5511151231257827e-17  1.0000000000000000e+00  1.0000000000000002e+00  4.0341015145087306e-01  1.0000000000000000e+00  1.0000000000000002e+00  5.8669627316213246e-01  1.0000000000000002e+00  4.8150832604307026e-01  1.0000000000000000e+00  7.4889922685383736e-01  4.3288719882934901e-01  1.0000000000000000e+00  -1.1102230246251565e-16  1.0000000000000002e+00  0.0000000000000000e+00  1.0000000000000000e+00  -2.2204460492503131e-16  1.0000000000000002e+00  1.0000000000000002e+00  1.0000000000000002e+00  1.0000000000000000e+00  -5.