<?xml version="1.0"?>
<VTKFile type="UnstructuredGrid"  version="0.1"  >
<UnstructuredGrid>
<Piece  NumberOfPoints="1228" NumberOfCells="5197">
<Points>
<DataArray  type="Float64"  NumberOfComponents="3"  format="ascii">-1.412883232192979 -0.498916897224404 0  -1.595864871923849 -0.7076981334402126 0  -1.424974064043019 -0.8180641451546321 0  -1.496133812848886 -0.6224620133938269 0.168029496722675  -1.146527028962373 1.167114312334814 0  -0.9184143406250429 1.15951227012599 0.181890248271007  -1.117408632183515 1.349324948359656 0  -1.127667895979856 1.429138092744414 0.1957268739948787  -1.462744779920422 0.4173062759430208 0.7927788025429325  -1.315004706961013 0.6972167789990056 0.7557377227898123  -1.24261630433174 0.4137133052539228 0.6762314288941822  -1.564690195006766 0.6196325639107423 0.6892222911693506  -0.843554369120634 1.571972381406213 0.1893355977975628  -1.023406865707073 1.709833810979671 0  -1.105932760739799 1.665722801080373 0.2684407995307424  -1.073831515515874 -1.381296027576066 0.4703149899896178  -1.222912435612129 -1.211258208550986 0.5924324065281698  -0.9969898328475651 -1.363191667272982 0.7007929224873214  -0.9602840871252403 -1.119883154337391 0.5000000000000003  0.7774620075900223 0.6213786897703732 0.6301803247013167  1.111892032715658 0.6950153870911676 0.6782986928341398  0.9398731368034582 0.9099149963248007 0.6065948067581353  0.9918676312209388 0.6543886671119523 0.8433271873984621  0.941138706865577 1.555920911307085 0.1704413559358486  1.182595711909019 1.604297419826286 0.2395450545717993  1.105979666019659 1.665697729685953 0  1.023406865707056 1.70983381097968 0.2701021146961656  1.103193596384578 0.3504086635323349 0.7926247744809052  1.167609977272698 0.4754420500101144 1  0.9531946147586513 0.2860445573368379 1  1.298466289634289 0.2582810036338386 1  0.7119454820819836 -1.311017197308812 0.7850254167931945  0.6711564508304207 -1.401253329984251 0.5622240771778685  0.7873485614796214 -1.551119900712338 0.747618612172079  0.509899363520301 -1.411274404689723 0.7930410904030668  1.571223386396861 -1.222896538248188 0.681768998400601  1.365943112648017 -1.134934275590741 0.4914509233146168  1.447765498390705 -1.373330410045335 0.7315215413413203  1.404410164647943 -1.149349917793486 0.7975908961567035  -0.6404454764412717 1.557452185064736 0.3229483011552194  -0.6049140089552396 1.896431906697228 0.3184572261395962  -0.5174396855537765 1.720603924206695 0.4455678853971146  -0.6789195424108355 1.679413385346867 0.172716471184192  -1.512011392687988 -0.7917510345546442 0.2966161284015407  -1.82007427255317 -0.8171614684481319 0.2701477341636163  -1.623972487846827 -0.7834420794628646 0.5282118138501414  -1.683847711978677 -0.6637140041757016 0.3554943844166969  0.3335227193744119 1.455823083785915 0.5059548517043282  0.5147335164951123 1.695375458309009 0.4045574146742378  0.3114922696473099 1.749879024378842 0.4952208711948659  0.362054055747579 1.621275077683425 0.6647683656809289  0.803830552736335 -1.241808787336111 1  1.027552987385453 -1.122421832866236 0.7520124683793958  0.9317589561501367 -1.126789045658179 1  0.9466024263613499 -1.337784875385508 1  -1.297015254039048 1.200330857140984 0.198215552709849  -1.513321347298536 1.293450377028231 0.318300028577906  -1.577555788316503 1.215180484183664 0  -1.466118612717564 1.06068664004738 0.1854634457573004  -1.417954567522155 0.9826958282046394 0  -1.687765770332819 1.064693265863353 0  -1.776037932920274 0.899547665238146 0  -1.538403791801157 0.8564673244602555 0.1943213337786517  -1.34376490772025 -0.6629168230233793 0.5232079866624604  -1.540227286709983 -0.7594309578000181 0.7158969883666931  -1.486680182709609 -0.9357655947055598 0.5005733069352488  -1.325812149253608 -0.9556560748352179 0.692162030564986  -0.08003934538014729 1.295501408685772 0.6971819095783099  0.04160764913545779 0.9959020042462563 0.6951876610204599  -0.1158014551741539 0.9885945521690958 0.5360510107907983  0.07039621903639844 1.193189424248325 0.4925197764598668  -0.9912607890003962 0.0887306983322423 0.7688596154928593  -1.157675661796024 0.2874316557483794 0.8237284357888865  -1.193677763294787 0.02935523231729001 0.812175874957884  -0.9819498088636408 0.1832666661363625 1  1.015601792777485 -0.8204518079745813 0.6525547521204649  1.304637174418844 -0.7075626243921807 0.5186954339142219  1.054700059797406 -0.6058616406515142 0.4895215437898623  1.110028565937067 -0.5800778232130865 0.7539770568553924  0.410518663746953 1.145132281820996 0.1739528830163619  0.7253839885668945 1.031099139266958 0  0.5426779840473307 1.206243742029588 0  0.6297047863728796 1.149324118574361 0.3176746376671157  -1.370317109984933 0.6068829405856371 1  0.9065780864506976 -0.7643401139982925 0.8193321493755804  0.8427521110205465 -0.5344621625620394 0.6951122958534079  0.8874756245502677 -0.4507903538350485 1  -0.3365162964824625 0.9378841800729312 0.2405432884014713  -0.4415185705098927 1.234655578466227 0.3250771953421422  -0.5209854872342006 1.060897459510266 0.207962911636449  -0.3313057231869522 0.9394647902018173 0.5  -1.334552913091629 -1.215813856519444 0.3976467594449599  -1.415326496627902 -1.118270480731319 0.5860770877722016  -1.289838922750997 -0.9992737188619498 0.3584443832289749  -1.374007622100844 0.09777626041767989 0.7163944533892758  -1.497526988319634 0.06223231979832809 1  -1.257318893890059 0.113297357199552 1  1.249304098544304 0.9818639786871559 0.6226004215358898  1.094501835405095 0.9069959230168483 0.7911110155726667  1.309593523734593 0.7964501727899614 0.7808372169612792  -1.016378813307524 -1.085925806803902 0.7785250480141073  -1.319832932085968 -1.220158808863818 0.797553015984893  -1.04215606515532 -1.265258740361177 1  -1.224143446475008 -1.257655592102634 1  1.20556721898046 1.585445191179384 0.4476684804600739  1.091862571121528 1.371305525622352 0.2344987357957295  1.00357872437095 1.423058332434916 0.5177435908903606  0.6565945984642327 -0.7485610582252132 1  0.7260749200787838 -0.683994037072515 0.7575866569922562  0.7862467646240011 -0.6106744323530362 1  -1.426410269324307 -0.2746123173713337 1  -1.500573791635198 -0.1343119170450844 0.7793914918465166  -1.628642811205088 -0.2280282795420948 1  1.334629349047023 0.1545402339819274 0.6080677862736639  1.481952171293317 0.069454883228632 0.4891924348618718  1.292228821875236 0.3076565757391458 0.3322186037030394  1.499512864842357 0.3016748379228968 0.4450803538138309  -1.553893487133441 0.2026855142925206 0.8123817161664363  -1.724055721366079 0.08454345261679307 1  -1.730806770054562 0.2680869584325063 1  -0.4088784021612257 -0.9098780294493575 0  -0.5229419073512893 -1.071131864134972 0.1858598554011229  -0.2291981602613921 -0.9704387807865139 0  -0.3199640933144202 -0.9429052360103518 0.2421718464526027  0.4437787684872145 -1.472384709319954 1  0.3808210433871149 -1.763882641155164 0.817384939724187  0.5886194165627399 -1.607799173493189 1  0.2828443174131989 -1.737656437702833 1  -1.738241993048834 -0.1668323661063556 0.5052707113179995  -1.678786771260193 0.05495038097256552 0.6892783914122976  -1.475115822476183 -0.1061604368231795 0.5102968426790093  -0.8300753132502592 -1.509513793106689 1  -0.9480652577231136 -1.538949907681568 0.8061489537317872  -1.038889265765676 -1.701558295737102 1  -0.9927400037819177 -1.469592821760114 1  -1.65956562518322 0.6779485992594181 0.1896533736052345  -1.720532437548271 0.4373519509618823 0.1754478773861343  -1.709763549103771 0.6410356720050135 0.4332539624816215  -1.885130003936691 0.6421713892771141 0.270111656601095  -1.636071442661823 -0.3475227057135603 0.6780535416162582  -1.770439526340713 -0.3857097409097593 0.4625341959737544  -1.944522349779485 -0.4463810640409471 0.5920894244586623  -1.974189182631205 -0.2620616265888291 0.7298883433989083  0.1491014704226533 1.206091432684536 0.1645315316658615  -0.1324954485561265 1.170160433752792 0.1730870475574952  -0.1167133356171148 1.304836660355007 0.3171019939379283  0.05531881852987598 1.314100493560312 0  -1.264272254491768 1.537267213620411 0.5235172542791873  -1.237771957270619 1.559015445500463 0.7085720153548473  -1.382377160656424 1.440341022038268 0.687926620973708  -1.192571215110794 1.302722308512609 0.4782864723562278  0.3085523311331526 -1.969610247897571 0.6877920714727481  0.4909769421302074 -1.93099433805855 0.7575947101728453  0.4013802327098077 -1.958173202723359 1  -1.311232433775281 -0.5655346387499858 0.2575624298059242  -1.115114617145163 -0.4774046250283511 0.183365501259989  -1.389282245793132 -0.390104725039531 0.1762849063852214  -1.272047610987646 -0.2896564134506388 0.3164264087849299  -0.478103915917917 -1.622351537092959 0.6977077997690853  -0.7019581915565072 -1.428580415300582 0.6030955109277132  -0.5009139441539338 -1.349251873811594 0.5222432048981768  -0.600331598708143 -1.59479459233563 0.5327841362643094  -0.391399680066276 -1.237628786651703 0.6919365007968804  -0.2590693906238568 -1.20275231542913 0.4440646667880484  -0.0283024105191868 -1.319764063833097 0.6643409374643552  -0.3013774395956234 -1.46260667850183 0.4980611061261317  0.6960222699964466 1.295807126413262 0.5330849355015431  0.8083390270524147 1.571591874322219 0.472239330174774  0.5517231384485761 1.454403164442377 0.4298188378448305  0.7915237499511695 1.458085557217198 0.6786322054571055  0.3070347646120418 -1.231266475456671 1  0.4006956025444619 -1.24843802094553 0.6812500201025888  0.2057664659883401 -1.423434689071494 0.7640294242581815  -0.9290527823196455 0.3656295132424565 0  -1.190015801986949 0.4859549610262058 0.2855300420029705  -1.154952165344322 0.2392481477379702 0.1941991349140578  -0.9566144206959937 0.2747709680011161 0.2420850819122637  0.8427521110205465 -0.5344621625620393 0.304887704146592  0.9275246612083398 -0.3706670534361827 0.2407973732256985  0.9290934823066148 -0.3654953433663091 0.5  1.254380730905587 -0.8083467088102502 0  1.452879240810067 -0.9256401028442123 0  1.469388374880087 -1.034040776775462 0.1882486755660968  1.34761724649
[...]
<PointData  Scalars="f_10"> 
<DataArray  type="Float64"  Name="f_10"  format="ascii">5.9083216289545448e-01  8.1021514120178983e-01  7.2331553595252618e-01  7.0335795240619237e-01  7.1707076299075367e-01  5.7209339286293703e-01  8.1510316450506770e-01  8.7027245704922673e-01  6.1260055743336550e-01  5.8136420486420015e-01  3.9744790919021900e-01  7.5782723530459317e-01  8.4103045594793013e-01  1.0000000000000016e+00  1.0000000000000016e+00  8.1269974134434886e-01  7.8985240843727034e-01  7.6224077111045652e-01  5.6843990552424195e-01  0.0000000000000000e+00  3.9763138250702512e-01  3.9437317833430302e-01  2.5597931765813409e-01  8.6865411575339413e-01  1.0000000000000016e+00  1.0000000000000016e+00  1.0000000000000016e+00  2.1748822246337088e-01  3.4124041297109375e-01  0.0000000000000000e+00  4.1139425188208184e-01  5.8430075414506244e-01  6.4264773583598833e-01  8.0533312843233218e-01  5.9277619457000252e-01  1.0000000000000016e+00  8.3465894837832222e-01  1.0000000000000016e+00  8.6561897448799552e-01  7.5846005923060522e-01  1.0000000000000016e+00  8.5121622486286874e-01  8.6291128029237663e-01  7.7799394567628399e-01  1.0000000000000016e+00  8.5680113884698350e-01  8.6228721681257259e-01  5.8586348496682494e-01  8.3152075784853108e-01  8.3619651465943012e-01  7.3910539834302624e-01  5.7198382737935749e-01  6.1270215943901440e-01  5.5506366819758146e-01  7.1931103017991294e-01  8.2771442038988163e-01  1.0000000000000016e+00  1.0000000000000016e+00  8.6158200222888404e-01  7.9333747041394598e-01  1.0000000000000016e+00  1.0000000000000016e+00  8.2249523769107469e-01  5.9079654437914408e-01  7.8677757938390447e-01  8.1917575046097102e-01  7.1538964645711678e-01  3.8408960350119825e-01  0.0000000000000000e+00  0.0000000000000000e+00  2.6718393726463358e-01  0.0000000000000000e+00  2.6287843159961088e-01  2.6387388696773662e-01  0.0000000000000000e+00  3.9203664743157440e-01  5.7655017826176891e-01  2.9081055058386562e-01  3.3197987716668559e-01  2.9084509908704981e-01  3.4181621134904078e-01  4.1066997165250863e-01  3.9734431991749625e-01  5.9095048903390124e-01  2.5366749749826867e-01  0.0000000000000000e+00  0.0000000000000000e+00  0.0000000000000000e+00  3.9871348921253313e-01  2.4911687226735510e-01  0.0000000000000000e+00  8.5817488248435791e-01  8.5684988789055971e-01  7.1299809347966792e-01  4.7014268247453306e-01  5.9093942021364776e-01  3.4383793994578637e-01  6.7428223292840106e-01  5.1407719836291166e-01  6.2255976573756167e-01  5.7997319168515560e-01  8.5182380678025071e-01  7.1960464864872908e-01  8.1761438458423685e-01  1.0000000000000016e+00  8.1581023042397305e-01  8.0667945590164647e-01  0.0000000000000000e+00  0.0000000000000000e+00  0.0000000000000000e+00  5.4594223500001127e-01  5.9854109619009110e-01  7.2449505341505116e-01  4.3237989714989628e-01  5.7539146068964919e-01  4.1566620103870594e-01  6.1933278087742494e-01  6.5536372439254431e-01  7.9418361618891342e-01  8.1491965833032143e-01  0.0000000000000000e+00  2.6158276729488378e-01  0.0000000000000000e+00  0.0000000000000000e+00  6.2804356792210236e-01  8.5760215437323462e-01  7.8219800705821052e-01  8.2233624908450564e-01  8.1118294687899373e-01  7.5517322216501936e-01  5.7237160821475963e-01  7.9108805592592857e-01  8.6004651364654972e-01  1.0000000000000016e+00  8.3260865591777622e-01  8.4853483401903873e-01  8.3444942288982971e-01  8.7508862801238796e-01  1.0000000000000016e+00  7.4880373927941446e-01  8.6410945123901817e-01  1.0000000000000016e+00  1.0000000000000016e+00  2.8958728341901541e-01  2.4415320510005328e-01  3.9716565826091155e-01  4.0300532910919035e-01  1.0000000000000016e+00  1.0000000000000016e+00  1.0000000000000016e+00  8.2688771525060412e-01  1.0000000000000016e+00  1.0000000000000016e+00  1.0000000000000016e+00  5.2169504139359490e-01  2.8658200767396053e-01  5.3681150366538932e-01  3.9201420841468837e-01  7.6456110553627921e-01  6.7737078680136253e-01  5.3293691390838527e-01  7.7553815408693405e-01  3.8441946046883585e-01  3.0818525098223959e-01  4.0877308394724232e-01  5.8596456088712434e-01  5.6381720376748989e-01  8.2784653883401937e-01  6.4409415452075081e-01  7.3697239694804240e-01  3.5155641962380269e-01  3.9832570124305561e-01  5.3177750817337155e-01  0.0000000000000000e+00  3.7075377530056558e-01  2.4828964733276115e-01  0.0000000000000000e+00  0.0000000000000000e+00  0.0000000000000000e+00  0.0000000000000000e+00  5.8435884152042028e-01  7.9088818614491796e-01  8.5136945798638330e-01  7.8470212013284513e-01  5.8357782598496777e-01  7.7630365110276411e-01  5.5136459404004223e-01  5.8719719906416723e-01  5.7816115901115961e-01  5.7104926131937095e-01  3.6692154822797152e-01  2.8695935972111863e-01  2.8980987217248988e-01  4.1448218147099458e-01  2.3726954950474891e-01  3.9797850687429753e-01  0.0000000000000000e+00  2.8099085816507585e-01  0.0000000000000000e+00  0.0000000000000000e+00  2.9227817629181524e-01  0.0000000000000000e+00  3.9868397868468436e-01  2.4643954817287086e-01  6.0545123425422553e-01  2.6064563149482506e-01  0.0000000000000000e+00  2.6607445840981048e-01  0.0000000000000000e+00  0.0000000000000000e+00  2.8407833898282170e-01  0.0000000000000000e+00  0.0000000000000000e+00  5.6764176276805123e-01  3.0453980851126711e-01  3.9353110530144420e-01  2.5125652977612040e-01  0.0000000000000000e+00  0.0000000000000000e+00  5.9908676686244766e-01  7.1619607063512181e-01  8.0899262496832591e-01  7.5656314433239957e-01  0.0000000000000000e+00  3.5121899435483628e-01  0.0000000000000000e+00  2.4989938712154172e-01  0.0000000000000000e+00  0.0000000000000000e+00  4.8553447311485060e-01  5.7286834023163991e-01  2.5814097541326314e-01  2.3882968397359786e-01  1.0000000000000016e+00  1.0000000000000016e+00  1.0000000000000016e+00  5.6792305458095682e-01  7.1611210958255911e-01  6.2078238860754631e-01  8.5375887547720408e-01  1.0000000000000016e+00  1.0000000000000016e+00  1.0000000000000016e+00  8.7289986222999227e-01  8.5649983640633187e-01  8.5468694548669166e-01  1.0000000000000016e+00  1.0000000000000016e+00  5.8580624390805813e-01  5.1219106887403432e-01  5.8441085672760862e-01  6.9021433146243960e-01  7.8314970094758352e-01  1.0000000000000016e+00  1.0000000000000016e+00  5.4601925102877880e-01  6.1737017231041114e-01  7.4171606653664701e-01  0.0000000000000000e+00  3.9444848377812192e-01  2.6412924216184208e-01  3.9175867771154849e-01  2.8871322020244161e-01  2.5368525361877176e-01  5.6795318573923048e-01  3.2604372379605739e-01  3.9611501900623641e-01  1.0000000000000016e+00  3.8413108456684564e-01  5.6811791689126334e-01  5.3984966133242052e-01  8.7948435312718309e-01  8.3186804713989282e-01  1.0000000000000016e+00  1.0000000000000016e+00  1.0000000000000016e+00  1.0000000000000016e+00  8.1991647620566943e-01  1.0000000000000016e+00  7.2062856559312605e-01  1.0000000000000016e+00  7.9137303905274903e-01  8.4531531635523804e-01  5.8413319976364420e-01  8.3941876279012695e-01  8.6140109935338194e-01  2.7277734850816604e-01  0.0000000000000000e+00  0.0000000000000000e+00  0.0000000000000000e+00  0.0000000000000000e+00  3.2718622903572481e-01  0.0000000000000000e+00  1.0000000000000016e+00  1.0000000000000016e+00  8.6368694294252613e-01  1.0000000000000016e+00  1.0000000000000016e+00  1.0000000000000016e+00  1.0000000000000016e+00  1.0000000000000016e+00  0.0000000000000000e+00  8.4676438567663115e-01  1.0000000000000016e+00  1.0000000000000016e+00  1.0000000000000016e+00  1.0000000000000016e+00  8.4015322687023153e-01  1.0000000000000016e+00  7.2050646634471682e-01  1.0000000000000016e+00  8.4524687878676941e-01  2.4943861041787740e-01  0.0000000000000000e+00  5.6150813622008311e-01  3.8811689415512646e-01  4.1486214877734834e-01  5.7543437158786048e-01  8.2676111511503458e-01  5.8341918252359004e-01  7.2321359263130403e-01  8.2611560724431932e-01  8.1033483335197087e-01  5.9766655986418504e-01  7.7320808962043908e-01  0.0000000000000000e+00  2.6657642069566201e-01  0.0000000000000000e+00  5.7125973695905174e-01  3.8713955736295125e-01  7.5256635878962452e-01  1.0000000000000016e+00  8.6849728572880092e-01  8.2254188795262795e-01  7.4139573938377956e-01  8.4405250169012291e-01  2.6010455537750427e-01  0.0000000000000000e+00  2.8254039621530069e-01  0.0000000000000000e+00  1.0000000000000016e+00  7.9564119388222931e-01  8.5496487807558097e-01  7.5889781373195120e-01  1.0000000000000016e+00  1.0000000000000016e+00  1.0000000000000016e+00  7.4062053796939564e-01  5.8724037382022987e-01  5.3727249251141851e-01  8.2837718839697305e-01  8.5951492185328349e-01  1.0000000000000016e+00  1.0000000000000016e+00  8.0275134756746169e-01  8.5610880575518822e-01  1.0000000000000016e+00  1.0000000000000016e+00  8.3687474621582769e-01  1.0000000000000016e+00  6.0038061618550709e-01  7.3581004689560636e-01  6.5810007297221096e-01  7.3790385797419156e-01  0.0000000000000000e+00  2.6618956054804138e-01  2.3749686384532012e-01  6.1090489178636009e-01  5.5345174425923294e-01  5.4277884619721894e-01  7.1940697017171484e-01  8.2236124617408390e-01  1.0000000000000016e+00  2.8775248997350400e-01  5.7011751771833485e-01  3.5002635844254626e-01  4.2301940979729769e-01  3.1210811570341135e-01  3.5086867433254509e-01  0.0000000000000000e+00  0.0000000000000000e+00  2.9174478378313096e-01  0.0000000000000000e+00  7.7743730675843326e-01  8.8232853262549871e-01  8.2355990933285328e-01  1.0000000000000016e+00  1.0000000000000016e+00  1.0000000000000016e+00  7.5468455089934305e-01  0.0000000000000000e+00  8.3013943523653899e-01  1.0000000000000016e+00  1.0000000000000016e+00  1.0000000000000016e+00  7.1368543661582806e-01  8.2131051085124585e-01  7.3300320998126300e-01  8.6347393721624333e-01  0.0000000000000000e+00  3.8691066868068158e-01  0.0000000000000000e+00  6.3461052495687575e-01  5.1029816924826410e-01  2.9261553033382820e-01  3.7173780979163940e-01  2.7052717682397487e-01  5.6572686325819099e-01  5.8380774239821775e-01  3.4082157770274241e-01  8.3066058857935354e-01  1.0000000000000016e+00  1.0000000000000016e+00  8.1918271188126912e-01  8.6322307409655374e-01  1.0000000000000016e+00  1.0000000000000016e+00  2.3857871884333165e-01  3.8632392165672874e-01  0.0000000000000000e+00  8.7820393499727045e-01  8.7430283845483570e-01  1.0000000000000016e+00  1.0000000000000016e+00  8.1527667287650241e-01  5.3637660777039364e-01  7.1909367916749289e-01  7.9047554936194020e-01  8.5539513394929922e-01  8.1581111994716693e-01  1.0000000000000016e+00  8.5314757460455037e-01  1.0000000000000016e+00  1.0000000000000016e+00  1.0000000000000016e+00  8.4110062546655606e-01  8.7176354526685707e-01  8.2361226539631494e-01  1.0000000000000016e+00  8.4516132847127112e-01  1.0000000000000016e+00  1.0000000000000016e+00  1.0000000000000016e+00  6.8281131060570088e-01  7.3293817151655327e-01  0.0000000000000000e+00  0.0000000000000000e+00  5.3937908179282112e-01  6.6042282601762914e-01  8.4127128687675035e-01  1.0000000000000016e+00  1.0000000000000016e+00  7.2184921010592629e-01  5.5961074860555915e-01  1.0000000000000016e+00  0.0000000000000000e+00  2.9708645116136573e-01  0.0000000000000000e+00  3.4142248744066223e-01  5.7308101892284724e-01  5.1992048618182773e-01  7.9037026409114952e-01  7.4349169481097754e-01  1.0000000000000016e+00  8.4269405299498512e-01  1.0000000000000016e+00  1.0000000000000016e+00  1.0000000000000016e+00  1.0000000000000016e+00  8.2201598622557293e-01  8.5108140131853105e-01  1.0000000000000016e+00  1.0000000000000016e+00  5.6934279287781298e-01  7.8465207404691695e-01  7.2135976198029661e-01  5.6951035720632048e-01  7.4911734029061905e-01  8.4151805529603263e-01  5.7353444612758098e-01  8.4580488215764404e-01  6.9767122260125836e-01  7.6575240371128539e-01  8.7700443854812793e-01  8.4518040863690791e-01  8.5460563115080679e-01  8.5758530918698894e-01  8.2570179533919241e-01  4.1275267914743718e-01  5.8879960719308289e-01  0.0000000000000000e+00  0.0000000000000000e+00  0.0000000000000000e+00  5.8336965587838618e-01  6.4268836792852790e-01  7.1392729388619347e-01  5.8437711051618368e-01  5.8575517455591741e-01  5.6644001885874706e-01  7.7785600248575038e-01  4.1462034077406801e-01  3.1376682099928183e-01  5.7380171666007407e-01  5.7789880686892880e-01  8.1564812868483649e-01  1.0000000000000016e+00  1.0000000000000016e+00  8.4746169313670239e-01  0.0000000000000000e+00  2.3705560009157767e-01  0.0000000000000000e+00  2.2794187713987990e-01  6.3217805478572930e-01  4.0526408879162407e-01  5.7142192436156580e-01  3.4404098085679374e-01  1.0000000000000016e+00  3.4257908619218447e-01  3.6541311834212253e-01  4.0595261116301568e-01  5.8612163645758253e-01  5.7878134059542008e-01  3.4331802628623581e-01  3.9287068766232547e-01  5.6759345046384913e-01  5.7057731929885347e-01  2.6954100510291373e-01  6.9957131955513585e-01  5.7123075762045239e-01  2.9537978853657498e-01  4.0048241110697730e-01  2.6294942110309139e-01  8.0447977794848191e-01  1.0000000000000016e+00  7.7982245890062529e-01  1.0000000000000016e+00  6.9082724545744534e-01  1.0000000000000016e+00  8.2213505418239941e-01  1.0000000000000016e+00  1.0000000000000016e+00  0.0000000000000000e+00  2.8386511749029536e-01  0.0000000000000000e+00  2.8532168353876164e-01  0.0000000000000000e+00  5.7258661815863654e-01  1.0000000000000016e+00  8.3937975006936150e-01  1.0000000000000016e+00  1.0000000000000016e+00  8.6112075772712682e-01  8.2056920616426887e-01  1.0000000000000016e+00  0.0000000000000000e+00  1.0000000000000016e+00  1.0000000000000016e+00  1.0000000000000016e+00  1.0000000000000016e+00  8.6490109122928227e-01  1.0000000000000016e+00  1.0000000000000016e+00  1.0000000000000016e+00  8.2460614524036957e-01  1.0000000000000016e+00  1.0000000000000016e+00  8.5834869730955454e-01  8.0312198690686443e-01  7.0562707676066327e-01  4.1400464991286939e-01  3.9896785464743034e-01  1.0000000000000016e+00  7.5499947075843299e-01  0.0000000000000000e+00  2.2189812259745531e-01  5.8059581855545461e-01  6.3672724089075328e-01  7.5750307283582996e-01  1.0000000000000016e+00  8.2623951169313070e-01  1.0000000000000016e+00  1.0000000000000016e+00  6.5897740177703124e-01  5.8292889524132163e-01  7.8976631966411737e-01  3.3996263593704418e-01  2.2796421059926852e-01  5.8844964080699336e-01  7.9220013750421714e-01  7.0757450842393155e-01  8.6060116088497551e-01  1.0000000000000016e+00  7.4881175483459883e-01  1.0000000000000016e+00  5.8594604804784700e-01  5.9020638747589127e-01  7.1962642918835040e-01  5.2047678934371966e-01  1.0000000000000016e+00  8.1744572535645699e-01  8.6101705948313700e-01  1.0000000000000016e+00  1.0000000000000016e+00  1.0000000000000016e+00  8.4443970559435755e-01  1.0000000000000016e+00  7.3647932178730935e-01  6.2156113265200164e-01  1.0000000000000016e+00  1.0000000000000016e+00  4.1743358463626246e-01  6.8944416764624039e-01  5.8467647823854019e-01  6.5310002208946627e-01  8.0866857659025426e-01  8.4912817998999990e-01  3.4258514299268839e-01  2.2784728252708120e-01  4.1587281558792011e-01  0.0000000000000000e+00  3.9477695863163181e-01  0.0000000000000000e+00  7.5069603793115414e-01  5.8293819841646854e-01  0.0000000000000000e+00  3.4069669462281466e-01  4.1569695327667483e-01  7.9421317952023407e-01  8.6743556746533224e-01  8.1884883149371424e-01  1.0000000000000016e+00  8.5388148371582062e-01  1.0000000000000016e+00  0.0000000000000000e+00  2.4710451518422322e-01  8.6518445576915548e-01  8.5821648517993054e-01  1.0000000000000016e+00  1.0000000000000016e+00  5.8938474091821691e-01  2.3939043139341715e-01  4.1212601237053564e-01  0.0000000000000000e+00  2.8009384011153093e-01  8.4284655681424492e-01  8.3034369169160560e-01  1.0000000000000016e+00  5.8847072255362320e-01  5.3683929738991898e-01  0.0000000000000000e+00  0.0000000000000000e+00  6.1074934347720589e-01  7.2138284903397032e-01  2.8185544954998432e-01  3.9001021542532255e-01  0.0000000000000000e+00  3.4835401109133524e-01  5.2926328274811762e-01  0.0000000000000000e+00  2.7222494768036026e-01  7.7978597953191497e-01  8.2734502724295855e-01  5.6791382287280856e-01  7.4644950670784116e-01  8.5539584879147157e-01  0.0000000000000000e+00  2.1345472199092511e-01  0.0000000000000000e+00  0.0000000000000000e+00  0.0000000000000000e+00  5.8577268385329151e-01  4.1295761226270716e-01  7.2124272319930427e-01  6.2680672042586771e-01  6.1902320326703086e-01  8.5788876631655853e-01  2.1437590995305472e-01  1.0000000000000016e+00  1.0000000000000016e+00  5.8944450388117409e-01  8.4327006481023414e-01  1.0000000000000016e+00  1.0000000000000016e+00  1.0000000000000016e+00  1.0000000000000016e+00  1.0000000000000016e+00  5.5983728961040924e-01  7.2194139274699631e-01  3.8688649549511311e-01  5.7195403770533482e-01  7.2964059217158062e-01  4.8698565826466284e-01  1.0000000000000016e+00  5.7358323540272915e-01  7.1595959433321488e-01  1.0000000000000016e+00  7.9549395646479315e-01  8.6213506066588008e-01  8.1487929492112043e-01  5.6983975939613019e-01  6.4806818624886275e-01  0.0000000000000000e+00  4.1061504412160521e-01  8.4437157710259314e-01  8.4889445473035319e-01  0.0000000000000000e+00  0.0000000000000000e+00  2.8811013512255423e-01  7.9146275982496361e-01  8.3806551906997062e-01  0.0000000000000000e+00  1.0000000000000016e+00  1.0000000000000016e+00  3.5581462060302255e-01  5.9197047015140702e-01  3.4506193308915267e-01  2.9063910999738746e-01  0.0000000000000000e+00  3.9761124240392492e-01  7.1613806052904716e-01  7.9250162087103038e-01  4.2389473733607114e-01  0.0000000000000000e+00  0.0000000000000000e+00  0.0000000000000000e+00  8.7857715543649484e-01  8.3372378318151219e-01  8.5481554231890722e-01  8.1321378222470497e-01  8.7726337146422084e-01  1.0000000000000016e+00  0.0000000000000000e+00  0.0000000000000000e+00  0.0000000000000000e+00  5.5780028217518207e-01  0.0000000000000000e+00  0.0000000000000000e+00  0.0000000000000000e+00  0.0000000000000000e+00  1.0000000000000016e+00  5.7426170430896128e-01  7.1425907336077776e-01  5.4208922037659502e-01  6.4779978565834939e-01  5.8685566955496704e-01  1.0000000000000016e+00  1.0000000000000016e+00  1.0000000000000016e+00  1.0000000000000016e+00  0.0000000000000000e+00  3.5155163714395543e-01  1.0000000000000016e+00  1.0000000000000016e+00  1.0000000000000016e+00  1.0000000000000016e+00  8.4815301842539259e-01  1.0000000000000016e+00  1.0000000000000016e+00  1.0000000000000016e+00  8.6711914595866935e-01  7.9249053097969335e-01  8.4641490888727500e-01  1.0000000000000016e+00  7.0064754035441146e-01  8.7063360163847703e-01  8.4894931521638262e-01  1.0000000000000016e+00  1.0000000000000016e+00  1.0000000000000016e+00  1.0000000000000016e+00  5.8559226889641725e-01  6.6957939684134771e-01  7.9136080195762537e-01  7.2919792798676419e-01  8.6292119287765556e-01  5.9114899417695888e-01  3.5083857543307007e-01  0.0000000000000000e+00  0.0000000000000000e+00  8.2878088168374664e-01  1.0000000000000016e+00  1.0000000000000016e+00  1.0000000000000016e+00  1.0000000000000016e+00  1.0000000000000016e+00  8.5158633542079676e-01  1.0000000000000016e+00  8.2283946968375232e-01  8.0847088115618526e-01  1.0000000000000016e+00  8.4401817587792194e-01  8.6624330989031506e-01  1.0000000000000016e+00  8.2052888579854377e-01  6.0194536219198980e-01  4.5346753734798001e-01  7.9262454790896242e-01  2.9233077412999930e-01  5.8718321252935246e-01  1.0000000000000016e+00  1.0000000000000016e+00  5.5891789112198820e-01  5.8680199923310916e-01  3.4553346940017055e-01  4.8152944305759871e-01  0.0000000000000000e+00  8.1853925336331712e-01  8.0143905563154993e-01  1.0000000000000016e+00  3.1287525558251833e-01  4.1486955864395203e-01  0.0000000000000000e+00  5.7445594634908737e-01  7.4862899187743237e-01  0.0000000000000000e+00  1.0000000000000016e+00  8.2755276125352373e-01  8.5202983799822363e-01  8.4759182526666088e-01  1.0000000000000016e+00  3.4370011623299351e-01  1.0000000000000016e+00  6.7766107611678206e-01  7.9085994902967416e-01  8.7131050196154913e-01  8.1277775973315547e-01  1.0000000000000016e+00  0.0000000000000000e+00  0.0000000000000000e+00  1.0000000000000016e