<?xml version="1.0"?>
<VTKFile type="UnstructuredGrid"  version="0.1"  >
<UnstructuredGrid>
<Piece  NumberOfPoints="176" NumberOfCells="626">
<Points>
<DataArray  type="Float64"  NumberOfComponents="3"  format="ascii">-1.462744779920422 0.4173062759430208 0.7927788025429325  -1.315004706961013 0.6972167789990056 0.7557377227898123  -1.24261630433174 0.4137133052539228 0.6762314288941822  -1.564690195006766 0.6196325639107423 0.6892222911693506  -0.9912607890003962 0.0887306983322423 0.7688596154928593  -1.157675661796024 0.2874316557483794 0.8237284357888865  -1.193677763294787 0.02935523231729001 0.812175874957884  -0.9819498088636408 0.1832666661363625 1  -1.370317109984933 0.6068829405856371 1  -1.374007622100844 0.09777626041767989 0.7163944533892758  -1.497526988319634 0.06223231979832809 1  -1.257318893890059 0.113297357199552 1  -1.426410269324307 -0.2746123173713337 1  -1.500573791635198 -0.1343119170450844 0.7793914918465166  -1.628642811205088 -0.2280282795420948 1  -1.553893487133441 0.2026855142925206 0.8123817161664363  -1.724055721366079 0.08454345261679307 1  -1.730806770054562 0.2680869584325063 1  -1.738241993048834 -0.1668323661063556 0.5052707113179995  -1.678786771260193 0.05495038097256552 0.6892783914122976  -1.475115822476183 -0.1061604368231795 0.5102968426790093  -1.65956562518322 0.6779485992594181 0.1896533736052345  -1.720532437548271 0.4373519509618823 0.1754478773861343  -1.709763549103771 0.6410356720050135 0.4332539624816215  -1.885130003936691 0.6421713892771141 0.270111656601095  -1.636071442661823 -0.3475227057135603 0.6780535416162582  -1.770439526340713 -0.3857097409097593 0.4625341959737544  -1.944522349779485 -0.4463810640409471 0.5920894244586623  -1.974189182631205 -0.2620616265888291 0.7298883433989083  -1.311232433775281 -0.5655346387499858 0.2575624298059242  -1.115114617145163 -0.4774046250283511 0.183365501259989  -1.389282245793132 -0.390104725039531 0.1762849063852214  -1.272047610987646 -0.2896564134506388 0.3164264087849299  -0.9290527823196455 0.3656295132424565 0  -1.190015801986949 0.4859549610262058 0.2855300420029705  -1.154952165344322 0.2392481477379702 0.1941991349140578  -0.9566144206959937 0.2747709680011161 0.2420850819122637  -0.9917877951958876 -0.08337991463409308 0.3014470703819548  -1.203640036831656 -0.08325252803474509 0.4828454397889581  -0.9711427085821456 -0.226877621308203 0.5  -0.9912607890003962 0.0887306983322422 0.5  -1.200554184744864 0.1951582901488528 0.5722415843174004  -0.9566144206959937 0.2747709680011161 0.7579149180877363  -0.9807852804032304 -0.1950903220161286 0  -1.209935812895535 -0.3819042831015633 0  -1.820860037820459 0.0940778455954159 0.8249209159235769  -1.740429359649223 -0.4716914031645397 0.8098827929228846  -1.675175657750933 -0.6607398531446582 0.8269759785572082  -1.863047176396528 -0.7149687156812052 1  -1.892475081514288 -0.6179579134933961 0.6823257906480289  -1.694030268265159 0.2521086332974301 0  -1.9123088686015 0.5525746798567135 0  -1.963291281964382 0.3727098689263164 0  -0.8818497861445191 -0.4613155571981953 0.5  -1.150536973579396 -0.480913571459282 0.4660449197857321  -0.9563006605232179 -0.2758052966743181 0.7404721885678482  -1.971763274727665 -0.286692282878117 0.4416850368765731  -1.989110983577033 -0.1105580390958591 0.2754498220525415  -1.761579966123775 -0.2663709394208962 0.2302127468000587  -1.93944788191584 -0.4631093427328397 0.312468973614769  -1.7586360996564 -0.1593651247605219 0.7674836060750635  -0.8818497861445191 -0.4613155571981952 0.7311394935597686  -1.115941880422272 -0.4305433895007025 0.796606423718511  -0.9256039491140714 -0.3769987926575506 1  -1.212002869458737 -0.2375731748946453 0.8353124047479963  -1.21000317190587 -0.3819247162339598 1  -0.9807852804032304 -0.1950903220161286 1  -1.525927344464973 -0.2393749232136364 0.2219150219271743  -1.415930250292146 -0.03013962490768879 0.2431523579218497  -1.749285118686629 -0.0940061731589974 1  -1.575027654417853 -0.4272778672614745 0.3583387676772505  -1.376556337245432 -0.4413811822579451 0.4728095292503682  -1.540546267421118 0.3160575247297414 0.5788901295650919  -1.725771647669393 0.3430097485514121 0.7545419563727896  -1.72596058113537 0.4955108474915281 0.5828909256489527  -1.969434863507119 0.3103330387327409 0.6361264082428812  -1.929321970332065 0.4964899996873173 0.7245501779474556  -1.190487498900903 0.03615294689702322 0.2137535486344003  -1.473771864508179 0.1228524379847805 0.4668768675845455  -1.986252054781623 0.1395852302816939 0.4691986221315061  -1.780044200666404 0.05311175152980256 0.4889464863196062  -1.991422321557937 0.08709063075238727 0.2572330376846003  -1.972468461473287 0.2795324016947319 0.3020560919448448  -1.720206073487053 -0.3872292339129283 1  -1.917404905726146 -0.535775296840406 1  -1.9650120031223 -0.3552390938204129 1  -1.944522349779485 -0.4463810640409477 0.772562156837397  -1.731067350347138 0.3425306741520479 0.411742788949795  -1.940529183105366 0.4595447704201737 0.2391745997996103  -1.939447881915845 0.4631093427328218 0.4952633427125438  -1.907212831476848 0.5693740628730387 1  -1.733336968666854 0.4378256679860146 1  -1.961570560806461 0.3901806440322567 1  -1.570108367541714 0.5323200146201426 0.3214131146464111  -1.4996994999672 0.3046073686345621 0.2461276645980091  -1.573062635283103 0.710522813525687 1  -1.69636532186868 0.6500391759259293 0.82538474617488  -1.664660741945468 0.560043186159905 1  -1.85285510214723 0.74856748171384 1  -1.295818339527629 -0.1133243096087688 1  -1.450441019651562 -0.2765949854519154 0  -1.5576587466791 -0.06806370280219359 0  -1.222473603421901 0.3518873350067027 0  -1.46295663988695 0.3280486082887119 0  -1.257150721370752 0.1132818288738338 0  -1.614445528027136 -0.0895553740106462 0.3477398800377443  -0.9482005564984586 -0.3025077610903928 0.2301063922394252  -1.796694049967172 -0.01478787568249089 0.2086438349576154  -1.781864168871655 0.1864306443293937 0.1730525028907116  -2 -2.449293598294706e-16 0  -1.540227286709983 -0.7594309578000181 0.7158969883666931  -1.432341127333238 -0.8020961674110092 1  -1.285361083627857 -0.7056318215590633 0.7820307561532949  -1.459371640292367 -0.5186517413535566 0.749881381869644  -1.875920433601355 0.672531273966861 0.7616887288907539  -1.34376490772025 -0.6629168230233793 0.5232079866624604  -1.146979132093379 -0.6111977257244187 0.6415714464460128  -1.285156043291617 -0.351816949472253 0.6633811875835041  -1.992530085494706 -0.07584331475312509 0.504736657287455  -1.683847711978677 -0.6637140041757016 0.3554943844166969  -1.647750840002398 -0.5800941792630666 0.5582074612571528  -1.111399709213698 0.3143340114943649 0.3936982570693697  -1.417412770778386 -0.48194566875493 1  -1.596231885380743 -0.724927919435626 1  -1.635305746268364 -0.5480427802511509 1  -1.13407750712131 -0.2153179274375809 0.6269079539693194  -1.250327345612778 0.359966722685725 1  -1.358753583540909 0.4331344014522989 0.4586164123344102  -1.877945506506339 0.6658555032582358 0.5583149631234268  -1.687422812760598 -0.5289845451979994 0.1787939533334902  -1.963291281964381 -0.3727098689263351 0  -0.9994177357697949 -0.005911827939883069 1  -1.774018349100714 -0.2423465202832379 1  -0.9819498088636408 0.1832666661363625 0  -1.161618529882714 -0.6086679473328844 1  -1.412883232192979 -0.498916897224404 0  -1.304133030842394 -0.1097012979738302 0.6789968233247218  -1.599403017832927 0.3964101795874956 1  -1.652148460867653 0.1195813693636491 0.3168599109785838  -1.465782815393488 0.1193474926581011 0  -1.295023116703767 -0.113245986996865 0  -1.820074272553176 0.817161468448121 0.4079105755413405  -1.828344611031377 -0.8016887534344467 0.501479594258776  -1.895141120398549 -0.6091691611241368 0.4773268319077155  -1.989102099333176 0.1106482423375056 0.6979439080551546  -1.99827927884208 0.01747077510592193 1  -1.979924919824271 0.2038257095690893 1  -1.027492750785988 -0.6524847028891798 0.8199378413995048  -1.436854688949139 0.2633462915169819 1  -1.292882032904074 0.2047573215974398 0.3447930596874081  -1.663935857491406 0.5750728785195803 0  -1.781648922374962 0.2379196086930771 0.5841112152691851  -1.828344611031377 -0.801688753434447 0.7315233149267526  -1.78431344816284 -0.8840652651795469 1  -1.559641239500735 -0.4052782369023943 1  -1.820074272553177 0.8171614684481179 0.2274378431626041  -1.598442001919816 0.8131212705610243 0.8005177185861571  -1.7677624176777 0.9150300652967593 1  -1.857951139271881 0.7317680986975148 0  -1.98336636214011 -0.1688841593572455 1  -0.947388990623786 0.3051831352366393 0.5363564105802381  -1.650217386037167 -0.3811273884986385 0  -0.9917877951958877 -0.08337991463409308 0.6985529296180453  -1.557364917173048 0.7833533360165803 0.4519990588587856  -1.811833783889858 0.8325783383860297 0.6875310263852326  -1.623972487846827 -0.7834420794628646 0.5282118138501414  -1.972459577229428 0.2796226049363978 0.7864098642370551  -1.98164564098219 -0.1863549344631677 0  -1.981645640982192 0.1863549344631475 0  -1.748038853727744 -0.08681450671670213 0  -1.992530085494706 -0.07584331475312481 0.7646942852785927  -1.562107303025337 -0.8714576333881834 1  -0.9256039491140714 -0.3769987926575506 0  -0.9994177357697949 -0.005911827939883069 0  -0.8370702135273155 -0.5450922451011507 1  -1.391582474002526 0.487267687798005 0.2096997911392877  </DataArray>
</Points>
<Cells>
[...]
<PointData  Vectors="f_10-0"> 
<DataArray  type="Float64"  Name="f_10-0"  NumberOfComponents="3" format="ascii">-1.1117405592375664e-02 5.9176694189483157e-03 -2.2633310334728112e-04  -1.3467909233161338e-02 9.8296338295950098e-03 2.0372203542890277e-04  -1.3635872859173377e-02 7.6744447582208549e-03 9.4254752439788003e-05  -1.1245243569121811e-02 7.1709396266906250e-03 -8.9647865843568220e-05  -1.8732817199177982e-02 2.5664626320272789e-03 -5.5736449444539863e-05  -1.4822793924925701e-02 6.5022383659575043e-03 1.5313002946070004e-05  -1.4013240983319852e-02 8.2481242572280560e-04 -3.2587565324617985e-04  -1.9184333784295553e-02 5.0115602431143672e-03 1.5846590497754486e-04  -1.3128134372681581e-02 8.6417141897780821e-03 2.7298182798401614e-05  -1.0952118133280926e-02 1.8314736176934768e-03 -3.3425500608978183e-04  -9.5465019834542267e-03 9.9500615059010884e-04 -9.8864776333079251e-04  -1.3112360873887252e-02 2.3995210537247650e-03 -6.5198081300144029e-04  -1.1050052198545601e-02 -3.9638025758781514e-03 -6.8592072827703256e-04  -9.4750854048127140e-03 -1.7148464648465824e-03 -4.8344494583536725e-04  -8.6445756691772759e-03 -2.3476977304141590e-03 -7.9645419132105453e-04  -9.1634003301521664e-03 2.7168483356739830e-03 -5.0302107366655320e-04  -7.4306271583315098e-03 9.1223733572427476e-04 -7.9565608585811386e-04  -7.9785436194651782e-03 2.5891855412567785e-03 -7.1411839925851158e-04  -7.3734102930810225e-03 -1.3691060389155595e-03 7.5339544589597801e-05  -7.6246728989225274e-03 7.0487707407375572e-04 -2.8810090768155574e-04  -9.6150735505215086e-03 -1.3773482793912220e-03 5.1729616061582654e-05  -1.0984322118914839e-02 6.9145693685009951e-03 4.6108252916173963e-04  -8.9724024665113235e-03 4.2836261508165281e-03 5.6802780848661915e-04  -1.0300026825548538e-02 6.1491867163761165e-03 1.7602502133812439e-04  -9.3386098480688143e-03 4.5805752367715970e-03 4.9667910636052475e-04  -9.0034437496593588e-03 -3.6391526461765373e-03 -2.0227196933711187e-04  -8.1527872124120427e-03 -3.1685331968418248e-03 1.3440862654364667e-04  -7.5305773520463809e-03 -2.4232764927117649e-03 -6.7327062877031179e-05  -6.4793968087300969e-03 -1.1985946425702373e-03 -2.8106408374679734e-04  -1.3173262156053136e-02 -8.4265855091075273e-03 9.9338273837223696e-06  -1.5313769295414914e-02 -9.4020970868913187e-03 -3.1430994439680607e-04  -1.1797750653341857e-02 -5.8465390376629574e-03 3.3779484362908487e-04  -1.2921729934860625e-02 -5.3117671160753561e-03 2.1724956022641071e-04  -1.9432881860531506e-02 9.6689995160469683e-03 -7.9238474276584897e-04  -1.4389710696524297e-02 9.0170218806895856e-03 -9.5319103703254575e-05  -1.4898938752244625e-02 5.5811850930069361e-03 1.8052602610807184e-04  -1.9109555081870722e-02 7.2928155330356462e-03 -1.4136120418958221e-04  -1.8672271652398854e-02 -1.8535648642819215e-03 1.4604479441481397e-04  -1.3785537759635404e-02 -1.6705960399443040e-03 9.3550805708552106e-05  -1.8852257769089015e-02 -5.7885283247275385e-03 3.5965898216187110e-05  -1.8675519969994649e-02 2.4778601881183531e-03 3.3563521794850983e-05  -1.3915403210714931e-02 4.4160879171466719e-03 5.4755593283284230e-06  -1.9108210776264008e-02 7.4845683977728525e-03 2.2533685033905413e-04  -1.9177897071518412e-02 -4.9291209567055806e-03 5.3952008107177487e-05  -1.4306036955229888e-02 -7.0667491253429398e-03 6.0318922856962785e-05  -6.7882940124571320e-03 8.5787304699629270e-04 -4.2928171739244812e-04  -8.9918301854187820e-03 -4.1653491359052294e-03 -3.7990335619534531e-04  -1.0714730680267931e-02 -6.3406423247675901e-03 -3.5818446291833767e-04  -1.0138029703870561e-02 -5.0679475319592160e-03 -8.3823424109322653e-04  -9.0311953010688336e-03 -4.0436102382585826e-03 -2.4697467332847328e-04  -8.2424433017947284e-03 2.6051239645141005e-03 9.1998674383499503e-04  -8.6762991762738776e-03 3.6714699939680599e-03 9.3234975699588054e-04  -7.1872422300143885e-03 2.1179185102316099e-03 8.4948798336536256e-04  -1.8868649106793443e-02 -1.1364099639018454e-02 6.1645629251047329e-05  -1.4752225562312642e-02 -9.0240575651913957e-03 3.1337807637247439e-05  -1.9106351069458155e-02 -7.1792622907072973e-03 2.4793938908033032e-04  -6.5652292363469235e-03 -1.3360986662159838e-03 1.8290060436969421e-04  -6.0098149513388545e-03 -3.6903933299712390e-04 4.5023210625267567e-04  -7.6800134209670228e-03 -2.1768163565338717e-03 5.1625635192161347e-04  -7.6983963613720917e-03 -2.5804750656287230e-03 4.0225281499114236e-04  -7.2854072945683669e-03 -1.2545667859198239e-03 -3.6675122304903905e-04  -1.8971170492240921e-02 -1.1490417859756810e-02 6.4234953904303521e-04  -1.5330612928503006e-02 -8.8418843152023360e-03 3.2087820793161011e-04  -1.9407071002803762e-02 -9.6162139572032630e-03 1.0222668176754423e-03  -1.3814991770408120e-02 -4.8655023497068302e-03 -1.9546644401267004e-04  -1.4289439640651359e-02 -7.1246461033504472e-03 7.3013786723482205e-05  -1.9118239150577289e-02 -4.9646879962326022e-03 1.4882054493920856e-04  -9.5972177586781619e-03 -3.0101217791523227e-03 5.6089408508505222e-04  -1.0351147253615588e-02 -3.3439237322140634e-04 6.0632057137164491e-04  -7.2560183172132612e-03 -6.8308508810442322e-04 -7.6297971955316911e-04  -9.9987558869674802e-03 -4.8798514741854471e-03 2.5768014837193750e-04  -1.2039698947221074e-02 -6.5401976507493478e-03 8.5987128099234157e-05  -9.7427632925162055e-03 4.1637345926357934e-03 -3.9174782958496270e-05  -8.3034881728025808e-03 3.3467724226027250e-03 -3.1550567602015803e-04  -9.1985387305588400e-03 4.7605435354622500e-03 -3.5275567526658125e-05  -6.6972528698323319e-03 1.7527782191496661e-03 -1.2669213421071082e-04  -7.9982376621032872e-03 3.1482650826117802e-03 -2.8789446444060096e-04  -1.4162009890285900e-02 9.5658389762789519e-04 4.1599380261309396e-04  -9.6845858137399373e-03 1.9315314337443729e-03 1.3628968231661908e-04  -6.0384463395423901e-03 7.9881959614635091e-04 1.4577255299066683e-04  -6.8890157477816960e-03 5.8214096255330494e-04 1.0561160368876646e-04  -5.9841187114133727e-03 5.5077769590403006e-04 4.6690850333729679e-04  -6.5789351658736388e-03 1.5693588297586729e-03 4.2209187203166588e-04  -8.6935728875258238e-03 -3.4856866927269353e-03 -6.7045077861956125e-04  -8.4389616920637310e-03 -3.2194238916154801e-03 -7.4981429857212125e-04  -7.0128121850136262e-03 -1.7358442417537744e-03 -6.5941752615318746e-04  -7.5900211587847871e-03 -2.4338787684112899e-03 -3.7575253714499800e-04  -8.2217941829202858e-03 3.3094547499184319e-03 2.2403380670025402e-04  -7.7385867436579672e-03 2.8248115562645375e-03 5.3180257693767673e-04  -7.6830529055082067e-03 2.8526276217738294e-03 1.0320882205025677e-04  -8.7962564952608641e-03 3.8339530012972771e-03 -7.5187621176927015e-04  -8.9501535725948315e-03 4.1720823824269717e-03 -6.5210688086299242e-04  -7.2543956053397838e-03 2.2213590407358899e-03 -6.6677215557022884e-04  -1.0703290542934387e-02 6.3179684329502262e-03 2.6570952506435006e-04  -1.0175955112726388e-02 4.2902852149142396e-03 4.5646854101970199e-04  -1.1955606703829025e-02 7.9105121816280179e-03 -3.9113133925480911e-04  -1.0543724906492523e-02 6.3667967282131357e-03 -3.6267018493868600e-04  -1.0329201807692669e-02 5.8461187837378437e-03 -5.7514439527328273e-04  -1.0504571717231083e-02 5.7152435496889593e-03 -8.3462075760033208e-04  -1.2446646587063124e-02 -1.9891784556034767e-03 -7.8455509839073516e-04  -1.0800581959877835e-02 -3.8294321438353397e-03 8.4979687125517195e-04  -8.9259975445380238e-03 -6.9468914546375765e-04 1.1106710710801901e-03  -1.4133073277140380e-02 6.8582737508658363e-03 1.6970488729165634e-04  -1.0928894910213510e-02 4.7317829654206847e-03 7.5559617799828829e-04  -1.3173449833461894e-02 2.4240824453213949e-03 7.9408323194628109e-04  -8.2195584988629319e-03 -8.7165923528965961e-04 3.7293849549386806e-04  -1.9135354723378423e-02 -7.8092403848167161e-03 -1.9927829099986992e-04  -6.8670389546843930e-03 2.6856316216870273e-05 5.7204498487619781e-04  -7.2881878984060030e-03 1.7003149860227039e-03 6.2066930291392302e-04  -5.9346460509773916e-03 1.4608416207444229e-04 7.6235778609383821e-04  -1.2047051596138303e-02 -8.1691684241333214e-03 -9.7440770141793846e-05  -1.3206264435231150e-02 -9.4112393055963590e-03 -4.0545333660990275e-05  -1.3673624885099742e-02 -9.8228442094371073e-03 2.3961143728612615e-04  -1.1597958346921787e-02 -6.7675037410732108e-03 -1.0467746900058679e-04  -9.6005367376776132e-03 4.8933260373575397e-03 -3.7110634907730353e-04  -1.3055659479627309e-02 -8.9734774859459628e-03 6.0538995209107820e-05  -1.4804699868596559e-02 -1.0252741233462596e-02 2.5743714462874833e-04  -1.2853149475496491e-02 -6.1326218320491531e-03 -2.3977501424937915e-05  -5.9062144380239061e-03 -2.1916271791601598e-04 8.4461570402796288e-05  -1.0617742270594680e-02 -6.2686714245305192e-03 2.5842701538198294e-04  -1.0291273292200696e-02 -5.8304115663611409e-03 1.3801552609212617e-06  -1.5528694825511568e-02 7.2972485366705510e-03 2.3641912341067609e-05  -1.2100903680320775e-02 -6.6191085109496665e-03 -2.5925509334350026e-04  -1.1833698053169956e-02 -7.5516880138922840e-03 -4.6443346266280443e-04  -1.0450640402450766e-02 -5.6680652572830047e-03 -5.5855555845398723e-04  -1.5198348473282603e-02 -4.8704787391683725e-03 6.8966782453708651e-06  -1.3739078387707366e-02 6.7556928320224889e-03 -6.6295315942844777e-05  -1.2238797821901813e-02 6.8884380618973581e-03 9.0824442494174057e-05  -9.4812259771090163e-03 4.8164814617400447e-03 -1.6442594846985426e-05  -9.7954048032724995e-03 -5.0848493864292634e-03 5.0661036521915343e-04  -7.1693871235356055e-03 -1.8276286877572324e-03 8.3727812599566020e-04  -1.8862095581621718e-02 6.5146734164590628e-05 -1.1089282473788542e-04  -7.5376314464043418e-03 -1.8909646457009445e-03 -7.0035289365766610e-04  -1.9103078015099320e-02 4.9251345069132816e-03 6.0674359936841856e-05  -1.5074230047851156e-02 -1.0215024332336708e-02 6.9035710163588943e-04  -1.2232689389490329e-02 -6.8257378244009938e-03 3.4521162518419451e-04  -1.2006693080586909e-02 -1.9586436325579656e-03 -2.1650517961473639e-04  -9.8344945075863645e-03 4.6630919241891977e-03 -6.1984176207123336e-04  -7.9765236488911640e-03 1.4173798346502548e-03 4.2630853215522643e-04  -1.0067211114281714e-02 1.8764035452292721e-03 1.1034601752413469e-03  -1.2483562922564584e-02 -1.9650800636340808e-03 8.9195111767210414e-04  -1.0873536391469360e-02 6.4849138749053280e-03 2.5006440064931200e-04  -1.0673177785763330e-02 -5.9932246942580444e-03 6.7012768974319037e-05  -8.9307438693757638e-03 -3.9407209620445005e-03 1.1847872591179287e-04  -5.9869538624966962e-03 6.5655964285558737e-04 -2.2341251105736671e-04  -5.9013236332018295e-03 2.1015263453191851e-04 -5.8117935420877378e-04  -6.3064447417001636e-03 1.1256426190225772e-03 -6.1148908435442893e-04  -1.5842235895670041e-02 -1.1851978361155589e-02 7.9222316384423830e-04  -1.0899767572094262e-02 4.0181075822385993e-03 -7.1352229980562885e-04  -1.2418034031211779e-02 4.0680118633024485e-03 2.6364126409039740e-04  -1.0482485224449127e-02 6.0001594145841861e-03 7.2906959080173766e-04  -7.3533955510179773e-03 2.1205656824990621e-03 -4.7772285952131463e-05  -1.0731994975850111e-02 -6.0107916862906213e-03 -3.4274458945763556e-04  -1.1747660745855067e-02 -7.1064708934323907e-03 -8.5608633724819350e-04  -1.0242766993537083e-02 -4.7323924655475651e-03 -6.0674222153652964e-04  -1.0960940853254034e-02 6.5095676583110523e-03 5.7114323193579498e-04  -1.2047416978082034e-02 8.4164905281616156e-03 -2.2848343709147613e-04  -1.2032405324358991e-02 7.7651510960668876e-03 -8.4899076942130053e-04  -1.0373519290421032e-02 5.5451968014771074e-03 1.0060692104729631e-03  -6.1835921846159995e-03 -6.6846645355672684e-04 -6.0513286897185181e-04  -1.9024550856771585e-02 8.2458738243465519e-03 1.2125308351251708e-04  -9.2837740949740961e-03 -3.8457275143861866e-03 8.3137120979804614e-04  -1.8767377120868223e-02 -2.0761818950103500e-03 -6.0600486681628668e-05  -1.2045598564361666e-02 8.4708439090378333e-03 1.1633659437944077e-04  -1.1042068717873976e-02 6.6725142450039764e-03 -2.4015266873082569e-04  -1.1613226876381137e-02 -7.6364305290179072e-03 3.2077618146815897e-05  -6.5926485560406705e-03 1.5655357034789386e-03 -3.5816353685429116e-04  -6.2746923923442362e-03 -7.4772104863365149e-04 7.9588496935094008e-04  -6.2963406115839815e-03 1.0360137708168189e-03 7.9776902460609487e-04  -7.2931719422986863e-03 -6.1238591607586297e-04 9.3154745993145112e-04  -5.9456732798760219e-03 -2.1186672197449254e-04 -3.1893989241633052e-04  -1.2704858765038986e-02 -8.8707363604664559e-03 -4.3972109554398680e-04  -1.9423784267796181e-02 -9.6004726704328174e-03 -8.7926618408203636e-04  -1.8811477155890672e-02 7.7929627660221180e-05 2.8945265144938922e-04  -1.9110433896091707e-02 -1.3318601740855708e-02 1.7308035351383565e-03  -1.2189793661546350e-02 7.2697130047117229e-03 2.0266066123954913e-04  </DataArray> 
</PointData> 
</Piece>
</UnstructuredGrid>
</VTKFile>