<?xml version="1.0"?>
<VTKFile type="UnstructuredGrid"  version="0.1"  >
<UnstructuredGrid>
<Piece  NumberOfPoints="621" NumberOfCells="2515">
<Points>
<DataArray  type="Float64"  NumberOfComponents="3"  format="ascii">-1.412883232192979 -0.498916897224404 0  -1.595864871923849 -0.7076981334402126 0  -1.424974064043019 -0.8180641451546321 0  -1.496133812848886 -0.6224620133938269 0.168029496722675  -1.073831515515874 -1.381296027576066 0.4703149899896178  -1.222912435612129 -1.211258208550986 0.5924324065281698  -0.9969898328475651 -1.363191667272982 0.7007929224873214  -0.9602840871252403 -1.119883154337391 0.5000000000000003  0.7119454820819836 -1.311017197308812 0.7850254167931945  0.6711564508304207 -1.401253329984251 0.5622240771778685  0.7873485614796214 -1.551119900712338 0.747618612172079  0.509899363520301 -1.411274404689723 0.7930410904030668  1.571223386396861 -1.222896538248188 0.681768998400601  1.365943112648017 -1.134934275590741 0.4914509233146168  1.447765498390705 -1.373330410045335 0.7315215413413203  1.404410164647943 -1.149349917793486 0.7975908961567035  -1.512011392687988 -0.7917510345546442 0.2966161284015407  -1.82007427255317 -0.8171614684481319 0.2701477341636163  -1.623972487846827 -0.7834420794628646 0.5282118138501414  -1.683847711978677 -0.6637140041757016 0.3554943844166969  0.803830552736335 -1.241808787336111 1  1.027552987385453 -1.122421832866236 0.7520124683793958  0.9317589561501367 -1.126789045658179 1  0.9466024263613499 -1.337784875385508 1  -1.34376490772025 -0.6629168230233793 0.5232079866624604  -1.540227286709983 -0.7594309578000181 0.7158969883666931  -1.486680182709609 -0.9357655947055598 0.5005733069352488  -1.325812149253608 -0.9556560748352179 0.692162030564986  1.015601792777485 -0.8204518079745813 0.6525547521204649  1.304637174418844 -0.7075626243921807 0.5186954339142219  1.054700059797406 -0.6058616406515142 0.4895215437898623  1.110028565937067 -0.5800778232130865 0.7539770568553924  0.9065780864506976 -0.7643401139982925 0.8193321493755804  0.8427521110205465 -0.5344621625620394 0.6951122958534079  0.8874756245502677 -0.4507903538350485 1  -1.334552913091629 -1.215813856519444 0.3976467594449599  -1.415326496627902 -1.118270480731319 0.5860770877722016  -1.289838922750997 -0.9992737188619498 0.3584443832289749  -1.016378813307524 -1.085925806803902 0.7785250480141073  -1.319832932085968 -1.220158808863818 0.797553015984893  -1.04215606515532 -1.265258740361177 1  -1.224143446475008 -1.257655592102634 1  0.6565945984642327 -0.7485610582252132 1  0.7260749200787838 -0.683994037072515 0.7575866569922562  0.7862467646240011 -0.6106744323530362 1  1.334629349047023 0.1545402339819274 0.6080677862736639  1.481952171293317 0.069454883228632 0.4891924348618718  1.292228821875236 0.3076565757391458 0.3322186037030394  1.499512864842357 0.3016748379228968 0.4450803538138309  -0.4088784021612257 -0.9098780294493575 0  -0.5229419073512893 -1.071131864134972 0.1858598554011229  -0.2291981602613921 -0.9704387807865139 0  -0.3199640933144202 -0.9429052360103518 0.2421718464526027  0.4437787684872145 -1.472384709319954 1  0.3808210433871149 -1.763882641155164 0.817384939724187  0.5886194165627399 -1.607799173493189 1  0.2828443174131989 -1.737656437702833 1  -0.8300753132502592 -1.509513793106689 1  -0.9480652577231136 -1.538949907681568 0.8061489537317872  -1.038889265765676 -1.701558295737102 1  -0.9927400037819177 -1.469592821760114 1  0.3085523311331526 -1.969610247897571 0.6877920714727481  0.4909769421302074 -1.93099433805855 0.7575947101728453  0.4013802327098077 -1.958173202723359 1  -1.311232433775281 -0.5655346387499858 0.2575624298059242  -1.115114617145163 -0.4774046250283511 0.183365501259989  -1.389282245793132 -0.390104725039531 0.1762849063852214  -1.272047610987646 -0.2896564134506388 0.3164264087849299  -0.478103915917917 -1.622351537092959 0.6977077997690853  -0.7019581915565072 -1.428580415300582 0.6030955109277132  -0.5009139441539338 -1.349251873811594 0.5222432048981768  -0.600331598708143 -1.59479459233563 0.5327841362643094  -0.391399680066276 -1.237628786651703 0.6919365007968804  -0.2590693906238568 -1.20275231542913 0.4440646667880484  -0.0283024105191868 -1.319764063833097 0.6643409374643552  -0.3013774395956234 -1.46260667850183 0.4980611061261317  0.3070347646120418 -1.231266475456671 1  0.4006956025444619 -1.24843802094553 0.6812500201025888  0.2057664659883401 -1.423434689071494 0.7640294242581815  0.8427521110205465 -0.5344621625620393 0.304887704146592  0.9275246612083398 -0.3706670534361827 0.2407973732256985  0.9290934823066148 -0.3654953433663091 0.5  1.254380730905587 -0.8083467088102502 0  1.452879240810067 -0.9256401028442123 0  1.469388374880087 -1.034040776775462 0.1882486755660968  1.347617246490652 -1.061163179822044 0  0.2382892175692876 -1.471591899036973 0.4955209781265861  0.2441482264665806 -1.68711095498594 0.2543611194868012  0.1435408183010254 -1.450724164001282 0.2140138195018315  0.364943845569369 -1.449405072691717 0.2215112330483742  1.059531587242102 -0.5973251627738123 0.226746809598138  1.234689442690562 -0.4855157749746795 0  1.12700915308356 -0.3265270678978057 0.1991237339620514  1.228727303117767 -0.459331046989373 0.3236051145881703  0.5031802934273266 -0.8594726184264059 0  0.7805047611923689 -0.9061187185566575 0.2197836778390664  0.6565945984642327 -0.7485610582252132 0  0.5790946986177532 -0.8121635823205643 0.2406591020066253  1.29264339957742 -0.7108631639275693 0.248925098563288  0.2062702119573308 -1.209832294552009 0.5069451591351182  -0.03861139831730298 -1.305902836371665 0.3300992328426874  -0.05411455619544295 -1.180335689722473 0.5033519982168086  -0.2895078849523348 -0.9521440258122447 0.5362539270910905  -0.1357582835267979 -0.9866289761380859 0.6952505369826913  1.438290730876674 -0.4534288042395038 0.1837168804337665  1.519369205000765 -0.6057271090750227 0  1.685940558953262 -0.4500196176801594 0.2303894085313369  1.548728803732611 -0.6572481953988726 0.3158315927164428  -0.9807852804032304 -0.1950903220161286 0  -1.209935812895535 -0.3819042831015633 0  -1.828344611031377 -0.8016887534344467 0.501479594258776  -1.736582952516703 -0.973362741762956 0.6816999714220926  -1.828344611031377 -0.801688753434447 0.7315233149267526  0.8638068359660822 -1.218302366084752 0  0.9324225297118618 -1.069640369270793 0.223104162955864  0.7932047642417024 -1.26389931307753 0.1963766327108795  1.030433715894798 -1.231858392111446 0  -1.155897705984207 -0.6056548263397348 0  -1.025812920413763 -0.6511834817819452 0.1439798677502316  1.183651748105934 -0.0883654662417532 0.1686858213653584  1.475518248201104 -0.03253804452700697 0.1856409670857923  1.244700343070279 0.08518987797507366 0.2297974176709325  1.302253607553284 -0.1432650666920791 0.3118732805312475  0.580573651550607 -1.903815473393742 1  -1.029314058751751 -1.277283305743657 0  -1.178992651785597 -1.60725437485166 0  -0.814899804420075 -1.518363461454386 0  -1.064430939898313 -1.438297828212334 0.1876351619911193  1.404571026518731 -0.5037511239056995 0.5348683201513614  1.691569412576089 -0.5609133899741244 0.4730081079198554  1.639622120442623 -0.7656643535348759 0.5754969080455435  -1.100293793730394 -1.440233234786469 0.8308817755846929  -1.409648970501671 -1.417959626110762 0.7315592004692577  -1.259072795543131 -1.541534299303341 0.681542773860404  -1.337314418527182 -1.477323058760319 1  -1.252030506876232 -1.547313756251158 0.4762918344255788  -1.409648970501671 -1.417959626110762 0.5014885213334912  -0.4956491309591998 -1.563380666785781 0  -0.6869697439873288 -1.871540571604282 0  -0.7580030332512193 -1.620602597475575 0.200800306043187  -0.2125504397148364 -1.162691776221664 0.1975610850782581  -0.1357582835267979 -0.9866289761380859 0.3047494630173088  1.460188519029665 -0.1629806199680669 0.5487051496768689  1.300998876090121 -0.06620015533026624 0.701459469341089  1.273734645489973 -0.3733223405901023 0.6677503680638732  1.462819035581377 -0.247240831275101 0.7930628205732373  -1.14427663396646 -0.9784691238319053 0.5430642805458707  -1.149350747726731 -1.254278997813574 0.2766244916622759  -0.9563006605232179 -0.2758052966743181 0.7404721885678482  -0.8818497861445191 -0.4613155571981952 0.7311394935597686  -1.115941880422272 -0.4305433895007025 0.796606423718511  -0.9256039491140714 -0.3769987926575506 1  1.670473167333107 -0.1571316353029762 0.6661267788475292  1.979883779915309 -0.2042434100745073 0.712108154714385  1.818614516256198 -0.02030257729722755 0.8224734275766558  1.718772121177439 -0.3866834318575563 0.7667746127709867  -0.4351952344254975 -1.947915534096728 0.6879022171241533  -0.2402120605469595 -1.711293099448459 0.5951721536062687  -0.4600007231585856 -1.741224516301115 0.839054333966232  0.9080933109673303 -1.392933173756074 0.3219887364722751  0.818663626867002 -1.250496447075703 0.4758235842672084  -1.460269210528559 -0.997142497751212 1  -1.536047625067858 -0.9519929514599034 0.8052694561656402  -1.588692758267181 -1.201610047034396 1  -1.696041285575386 -1.049210865804753 1  -0.9276927122636932 -1.18966297302634 0.2221042075729678  -0.8872796870605097 -1.4002985370975 0.3147842555428691  0.5790946986177532 -0.8121635823205644 0.7593408979933747  0.7288306932309858 -0.9486137962695518 0.8304626122976658  0.7999786526575325 -0.8565217994501219 0.6452470139574003  -1.288568259440269 -0.805512686298428 0.2258674758772604  -1.225520025366661 -0.794093745484538 0  -0.8370702135273155 -0.5450922451011507 1  -1.027492750785988 -0.6524847028891798 0.8199378413995048  -0.7786461866372218 -0.6199357634264332 0.8011130297803182  1.157231385552274 -1.253901033215793 0.281726668262764  1.224429837858597 -1.367445394691974 0.1621926997827459  1.177855468001781 -1.310694360819405 0  1.636952961386825 -1.142804819387519 0  1.677712194062701 -0.09696593309475177 0.3004554327500731  0.7464136245425157 -0.6592112539775661 0.464253437432927  -1.575027654417853 -0.4272778672614745 0.3583387676772505  0.2714449589252247 -1.737
[...]
<PointData  Vectors="f_10-0"> 
<DataArray  type="Float64"  Name="f_10-0"  NumberOfComponents="3" format="ascii">-2.4106944898632524e-02 -8.2004430956520730e-03 2.6570453184454209e-03  -2.1364844944961991e-02 -9.1650999753126010e-03 2.6262797744730942e-03  -2.0967983958774687e-02 -1.1730427414482191e-02 2.6228824286431947e-03  -2.2510799913426836e-02 -9.0922228850229096e-03 1.7918419102517860e-03  -1.4382119873767652e-02 -1.8194886271798213e-02 1.9216128431985373e-04  -1.6750765678471075e-02 -1.6342366702247858e-02 -3.9725712962004715e-04  -1.4085814001931858e-02 -1.9003214328194899e-02 -9.6197576977971545e-04  -1.6847754116660198e-02 -1.9408219007157251e-02 4.9857566590566159e-05  1.2213658078831076e-02 -2.2466280659540400e-02 -1.4834449940167047e-03  1.0780633889953250e-02 -2.2449637198555500e-02 -3.8216722345075366e-04  1.0567380318769916e-02 -2.0754784373682372e-02 -1.3159748956671829e-03  8.6634651803431124e-03 -2.3916803072288845e-02 -1.5344362356059797e-03  1.7231495780084195e-02 -1.3235424843860637e-02 -1.0080210359881437e-03  1.7763835154053467e-02 -1.4614813271242613e-02 -3.4335983280061027e-05  1.5826969956621178e-02 -1.4873296521123154e-02 -1.2552338720923960e-03  1.7680560562044485e-02 -1.4317700153439071e-02 -1.5858226834336924e-03  -2.0974066463401830e-02 -1.0706083576382265e-02 1.1303324988882414e-03  -1.9947991319449257e-02 -8.7001576412512101e-03 1.2632982239696661e-03  -2.0683422330183821e-02 -9.7263352213645630e-03 -2.7344573275776552e-05  -2.1344252527832008e-02 -8.1480492970179806e-03 8.5262136113669316e-04  1.4010671901841095e-02 -2.1558963942156457e-02 -2.5867040313104998e-03  1.7089017667790477e-02 -1.8554845908870771e-02 -1.3331534424809327e-03  1.6554429837218120e-02 -1.9916288564071568e-02 -2.5991003632734031e-03  1.3979331299967084e-02 -1.9638864113369885e-02 -2.5851156663978833e-03  -2.2964308655005029e-02 -1.1077906575816261e-02 -1.1591756003014873e-05  -2.1141625798966286e-02 -1.0182801349391812e-02 -9.7442238912893943e-04  -1.9726239835586939e-02 -1.2149420500763577e-02 9.1243476867127932e-05  -1.9681069885284865e-02 -1.3945026275992253e-02 -8.8598755576845835e-04  2.1821419845287245e-02 -1.7502840689559724e-02 -8.2584703128292774e-04  2.2551914373651720e-02 -1.2076501175595810e-02 -1.5301330686512206e-04  2.5607058799292495e-02 -1.4592810296685728e-02 1.3507294422173685e-05  2.5589053900663968e-02 -1.3246212701267216e-02 -1.3470751845210296e-03  2.2942353809526295e-02 -1.9288666504186598e-02 -1.6838074644814972e-03  2.8948211387224174e-02 -1.8302388275596555e-02 -1.0592753435195077e-03  3.0643700211103166e-02 -1.5501410926667250e-02 -2.5348028231903549e-03  -1.7001603356398727e-02 -1.5200939450903259e-02 5.8289737457446495e-04  -1.8029131560132087e-02 -1.3995980192980848e-02 -3.5264817262022340e-04  -1.9227481546009079e-02 -1.4628924314653095e-02 7.9250646366644389e-04  -1.7580193827292069e-02 -1.8550984783305410e-02 -1.3305681287178860e-03  -1.6899288406130825e-02 -1.5369809411246542e-02 -1.4146189986336585e-03  -1.5380634164358668e-02 -1.8461547286565832e-02 -2.4449125871748786e-03  -1.6248045597906796e-02 -1.6463374499255459e-02 -2.4531817648477121e-03  2.2604920438599744e-02 -2.5776951719839639e-02 -2.5526058519370403e-03  2.4966821243281239e-02 -2.3491724717971812e-02 -1.3966033202334651e-03  2.7106110114530894e-02 -2.0959754313167402e-02 -2.6398222856974908e-03  2.7204268358312900e-02 3.4043244637775917e-03 -6.0143189625709538e-04  2.5596050845397941e-02 1.4078399502595966e-03 9.9712272903324782e-06  2.6851949799291643e-02 6.6332917703820111e-03 8.2542637715405016e-04  2.4627184322145116e-02 5.2084187701123517e-03 2.4033379805846631e-04  -1.4031110932224792e-02 -3.1057378347497444e-02 2.7599521829767522e-03  -1.3206476034178891e-02 -2.6758731465790518e-02 1.6881534019171764e-03  -7.9066099427306941e-03 -3.3207180466090738e-02 2.6377376236617635e-03  -1.1067058051685778e-02 -3.2298449367177316e-02 1.4793031581249799e-03  7.2313509444441124e-03 -2.3975206634632283e-02 -2.5749127213767439e-03  4.8095085299858474e-03 -2.2310436708597160e-02 -1.6506093903213134e-03  8.0934534918142200e-03 -2.2066932113941784e-02 -2.5782802103966823e-03  3.6981785078855256e-03 -2.2833998778003951e-02 -2.5623530865085901e-03  -1.1356087813975504e-02 -2.0418927598293415e-02 -2.4840807451039057e-03  -1.2056865286476714e-02 -1.9316106897290148e-02 -1.5014125075760183e-03  -1.1432764025306377e-02 -1.8436240193955598e-02 -2.4700531086283358e-03  -1.2975083422840927e-02 -1.8991466588998949e-02 -2.4676485140028843e-03  3.3199347923887181e-03 -2.1462871814485574e-02 -9.9941997052397594e-04  5.3353117668773009e-03 -2.1064552169215177e-02 -1.3553717331920749e-03  4.3480832269846038e-03 -2.1266051078371814e-02 -2.5494460106805224e-03  -2.4256171868742904e-02 -1.0169098658043154e-02 1.3398049711995409e-03  -2.7226922686867661e-02 -1.1394169992308145e-02 1.7929029036818543e-03  -2.5262389035924954e-02 -6.8179033960670639e-03 1.7702217284857606e-03  -2.7436511652346524e-02 -5.9763269015848663e-03 1.0611300531026913e-03  -6.7879622522288106e-03 -2.2657013042026528e-02 -9.9517467578034719e-04  -1.0928651917189381e-02 -2.1942307341771838e-02 -4.9432926815518941e-04  -9.1971248146456453e-03 -2.4468092760692346e-02 -1.0380778733817026e-04  -8.3979157803695179e-03 -2.1976403820810991e-02 -1.5379060321112255e-04  -8.5230169440736765e-03 -2.6716225286270680e-02 -9.7636102112795965e-04  -6.2190305731073068e-03 -2.8522593925478727e-02 3.0490446525351469e-04  -6.1789138824344225e-04 -2.7732820833360875e-02 -8.4084098838076334e-04  -5.2275427260971190e-03 -2.4963049451970743e-02 6.9343889926178791e-06  6.8910312367749639e-03 -2.7675945652439065e-02 -2.5618055118356419e-03  8.4968107074408512e-03 -2.6559625243557934e-02 -9.4186278493192687e-04  3.7079148327990039e-03 -2.5896170428211220e-02 -1.3552997940102687e-03  2.8923692684828008e-02 -1.8281554088393600e-02 9.7818396383224609e-04  3.1738946131410012e-02 -1.2608056090296577e-02 1.3382737696287332e-03  3.1743540457280534e-02 -1.2513204208244580e-02 -1.4050853129572284e-05  2.1444667262941149e-02 -1.3710269976694466e-02 2.4726920488631773e-03  1.9749937968675378e-02 -1.2434269632347552e-02 2.4414504272990798e-03  1.8730230609221937e-02 -1.3047034045561111e-02 1.4862685465449482e-03  1.8446186820502187e-02 -1.4403847350804886e-02 2.4376838563783315e-03  4.0573690095635434e-03 -2.5213106690558068e-02 -1.2835165981331256e-05  3.3130310717317405e-03 -2.3292149755936083e-02 1.1987686525048698e-03  2.4929712495645098e-03 -2.5771984896294529e-02 1.4160190768593927e-03  6.1945866611851034e-03 -2.4706753698723737e-02 1.3802637846884521e-03  2.5657297856322543e-02 -1.4353541882165043e-02 1.3606101542002109e-03  2.5726917107070816e-02 -9.9452102534250374e-03 2.5025911337007408e-03  2.9028695781677032e-02 -8.2654588096598564e-03 1.5220042567018984e-03  2.6089512951516392e-02 -9.6192549704315327e-03 8.5730465227161121e-04  1.7317316133860481e-02 -2.9517386410442440e-02 2.5426062652860954e-03  1.9463455297049983e-02 -2.2539665601640651e-02 1.4117498176128643e-03  2.2635582041909390e-02 -2.5755231855868484e-02 2.5061115654765836e-03  1.9911660193617106e-02 -2.7804067813928357e-02 1.3523657074669983e-03  2.2560029422130617e-02 -1.2285683737265494e-02 1.2119086904131488e-03  4.8721410134549246e-03 -2.8834560985994295e-02 -4.5847408636112818e-05  -8.8174949157556392e-04 -2.7929443733233531e-02 8.6908207163463504e-04  -1.4090843386301490e-03 -3.0081682272795614e-02 -2.3570788049974746e-05  -9.9108680081903787e-03 -3.2805065989206544e-02 -1.3331023957164170e-04  -4.6962136573821820e-03 -3.3928360064650769e-02 -1.0086337617999310e-03  2.4187197092131050e-02 -7.4589657451579836e-03 1.5518809982435096e-03  2.2379846871338559e-02 -8.7630142175868595e-03 2.4413015256264966e-03  2.2456561889936937e-02 -5.8065113374115461e-03 1.2796607679050527e-03  2.1866101046845467e-02 -9.1047567536394532e-03 8.5299507551629000e-04  -3.3526711496724940e-02 -6.3090345050225774e-03 2.9600433080190559e-03  -2.7306758109996450e-02 -8.3116844720967330e-03 2.7116784111808506e-03  -2.0018534739222413e-02 -8.5302139497285094e-03 1.1798285805702799e-04  -1.9070528331847799e-02 -1.0454953083522862e-02 -7.8749902078590153e-04  -1.9989226704350726e-02 -8.5223905428226856e-03 -1.0201429152361446e-03  1.4760158555001830e-02 -2.0749194452300248e-02 2.4799497261525040e-03  1.7365326778214667e-02 -1.9839631529234493e-02 1.3549484923779497e-03  1.3562389699602174e-02 -2.1603172777127172e-02 1.4995188248550630e-03  1.5660388464216860e-02 -1.8622521258504367e-02 2.4593601002663936e-03  -2.4837521834179994e-02 -1.2688459928351593e-02 2.6744746418506174e-03  -2.4975757784463589e-02 -1.5550682799787618e-02 1.9546626297352564e-03  2.9865334787811171e-02 -2.0361066942633081e-03 1.6897592111120127e-03  2.5694286056537917e-02 -3.5344419427281822e-04 1.5324033195432058e-03  2.8798821555459889e-02 2.1975384570953305e-03 1.3577716395490559e-03  2.7728195788749663e-02 -2.8335399830958282e-03 9.2340204359204103e-04  6.3578864459190101e-03 -2.0810752672941520e-02 -2.6025171981151284e-03  -1.5231436312877962e-02 -1.8561852864798906e-02 2.5643178683455348e-03  -1.2996143906198840e-02 -1.7325649117006806e-02 2.5200255981759432e-03  -1.1197007862509205e-02 -2.0466546660350769e-02 2.5348640485578734e-03  -1.3772960516028547e-02 -1.8263462993087069e-02 1.6034990589464089e-03  2.4074069509254292e-02 -8.4920020888204738e-03 -2.4045538334285742e-04  2.1842319464913263e-02 -7.0568006063137676e-03 6.0661904932776521e-05  2.0700663239453177e-02 -9.5031540629122047e-03 -4.6529719234101729e-04  -1.3937459995314257e-02 -1.7964226121606145e-02 -1.6089892355481878e-03  -1.5412531282552185e-02 -1.5233424890575803e-02 -1.0873536919386584e-03  -1.3872544809048138e-02 -1.6709070323719665e-02 -8.6155360067119208e-04  -1.4694341242406797e-02 -1.5963047056131208e-02 -2.4253762550145819e-03  -1.3805217202394811e-02 -1.6742497806411988e-02 1.5780471208329239e-04  -1.5427540679662496e-02 -1.5229908075199961e-02 4.8704448877416390e-05  -7.3860129874683388e-03 -2.2843915172277768e-02 2.5147761326414345e-03  -7.6358043874372008e-03 -2.0265894014593118e-02 2.4800377446229779e-03  -9.8423746662974800e-03 -2.0641561375659603e-02 1.5148455254958885e-03  -5.4722938730137642e-03 -2.9544447572259429e-02 1.5798713762214288e-03  -4.6966587686806862e-03 -3.3900738355208876e-02 1.0311306263979492e-03  2.5668150421036619e-02 -2.6655982477564663e-03 -3.0471602647474542e-04  2.7993096291798365e-02 -1.2229086952050060e-03 -1.0615058315845561e-03  2.6537628878146695e-02 -7.6471794667021288e-03 -9.0425480808816708e-04  2.5299094381386094e-02 -4.1024281741420133e-03 -1.5371935477209099e-03  -1.9415312337463398e-02 -1.6343020546351859e-02 -1.3734247442562272e-04  -1.6047995130374228e-02 -1.7218723957971103e-02 1.1791593383434428e-03  -3.3020228938713793e-02 -9.2993951272311460e-03 -1.2879781969941620e-03  -3.0485617822921210e-02 -1.5713602376854204e-02 -1.2330530431226478e-03  -2.7900331086162251e-02 -1.0514089098633762e-02 -1.4580726417173608e-03  -3.1643392538184004e-02 -1.2672283775415386e-02 -2.6689438801668036e-03  2.3682592315612289e-02 -2.0335604594361014e-03 -9.0014124550944071e-04  2.1651528019661068e-02 -2.0335846339050423e-03 -1.1508383678131315e-03  2.2738929672507735e-02 -4.7614517037245878e-05 -1.6856162493998745e-03  2.2588398315050016e-02 -4.8990064072667238e-03 -1.4116007379590843e-03  -4.8530918883513095e-03 -2.1156749942050752e-02 -9.5724008628502062e-04  -3.3363126965136850e-03 -2.3122733797082368e-02 -4.9256050537191593e-04  -5.9225516575557094e-03 -2.2049103379080011e-02 -1.7054399995770507e-03  1.3061976307971380e-02 -1.9969958962893556e-02 8.3742500225435863e-04  1.4005267412839527e-02 -2.1341723321539715e-02 7.6176757739044291e-05  -1.9120388950481303e-02 -1.2861756263265484e-02 -2.4159896711692230e-03  -1.9486000381968852e-02 -1.1835250474015646e-02 -1.4283734124307594e-03  -1.7424429641538730e-02 -1.2941265891695737e-02 -2.3923455369843799e-03  -1.8542975464311672e-02 -1.1263888847675544e-02 -2.3781039322261447e-03  -1.5716593390230800e-02 -1.9840497398131023e-02 1.4388225020174744e-03  -1.2930973787695574e-02 -2.0093804936269010e-02 9.5959950520949511e-04  1.9940214000621240e-02 -2.7978397773537951e-02 -1.3735314547440802e-03  1.8205665241654408e-02 -2.3576815075601526e-02 -1.7337204771689472e-03  2.0654160695378270e-02 -2.2088170835516240e-02 -7.7163838357380407e-04  -2.1512577591394296e-02 -1.3160154047000140e-02 1.4745955684677577e-03  -2.1825992834065455e-02 -1.3840649664729083e-02 2.6352346730967118e-03  -2.8598799408059601e-02 -1.8423839273131199e-02 -2.7872200397305266e-03  -2.4909127595064029e-02 -1.5605772877535505e-02 -1.6031295163633731e-03  -2.6865268606945110e-02 -2.1215364029657915e-02 -1.6145133753041360e-03  1.5990058176551948e-02 -1.7224256154333682e-02 1.0358023410347156e-03  1.5111021756753620e-02 -1.6773318012176474e-02 1.6238222445977572e-03  1.5455849792215733e-02 -1.7109719310889320e-02 2.4414924603044989e-03  1.7823219742766135e-02 -1.2281006420982132e-02 2.3970882686325892e-03  2.3694029339082944e-02 -1.1694531893467045e-03 9.3628083901454865e-04  2.5764405171229722e-02 -2.2529593806921128e-02 1.8623437371250370e-04  -2.3465327499258233e-02 -6.0813901694202373e-03 8.5090975133958360e-04  3.5297882850290787e-03 -2.2860864259043868e-02 -2.7867925785771228e-04  2.8056817697201422e-03 -2.3787869089012544e-02 -1.5616221246500426e-03  3.3897366495818190e-04 -2.2763670911404243e-02 -1.6101952377102701e-03  -2.0946603134326704e-02 -2.0621608572447433e-02 -1.5215380316747323e-03  -1.4744619312914464e-02 -2.4076869422129370e-02 -8.1853222124218437e-04  -1.6726512565647628e-02 -2.4558395705998479e-02 -1.7053074220094242e-03  2.5610383989419592e-02 2.9472227534999974e-03 -1.4060185657887932e-03  2.5550747820884023e-02 4.7873669256388400e-05 -2.5942347477327767e-03  2.8723154511723092e-02 3.8551806110070436e-04 -2.5793956969014597e-03  -5.8877800559913205e-03 -2.2263499992706676e-02 1.5735846538055153e-04  -4.6770510337526749e-03 -2.1174950470008003e-02 4.3169076025094828e-04  -6.4708562986345152e-03 -2.0721308702391177e-02 -1.3463417500738894e-04  -4.8377393721702865e-03 -2.2074232336101975e-02 1.7341852264605500e-03  -7.3504337734209479e-03 -2.1409129532064412e-02 1.5020469093173195e-03  -5.6830435968173269e-03 -2.0905835033232865e-02 2.4724297414018600e-03  -4.6832996479597528e-03 -2.1153318096869895e-02 1.3375067220309537e-03  1.7338159908332193e-02 -1.9427548214111190e-02 2.4801155568667257e-03  1.7497352043145217e-02 -1.6480793574368893e-02 2.4517763411708565e-03  2.1737995849192983e-02 -8.6600449620930237e-03 -2.5868396898644599e-03  2.0928728881623754e-02 -9.1126434428653730e-03 -1.6079393501674359e-03  2.2317227164832372e-02 -6.2525225127350826e-03 -2.5906244791237491e-03  2.0564252501205707e-02 -7.0244260080743193e-03 -2.5829793817232155e-03  9.6279502577590118e-03 -2.0856905523372882e-02 -2.5832182339293598e-03  1.2001399513228882e-02 -1.9286414838106464e-02 -1.7067866806192043e-03  1.1849339356668117e-02 -1.9872143988108635e-02 -2.5955605827632606e-03  1.0132728209918680e-02 -1.9251789095195239e-02 -2.6091734438390859e-03  -1.8360318148830931e-02 -1.3701916474075607e-02 1.6073036905006543e-03  -1.7932477177051261e-02 -1.2232383123379055e-02 1.0192901121835521e-03  -1.6952751488894906e-02 -1.3596240377125165e-02 2.0300537375555138e-04  -1.8032027386332479e-02 -1.2092707545824324e-02 -3.5619013486905623e-04  2.2542580697984014e-02 -4.2075634678664384e-03 -2.1715609806117553e-04  2.1347501672325558e-02 -3.8319634238265119e-03 3.5817399698074735e-04  2.0931600259988553e-02 -5.7333049213839707e-03 8.1204532401180345e-04  -2.1055050918023569e-02 -1.1557026199260172e-02 -2.4174313788233601e-03  -2.2740274360886215e-02 -1.2259836096016030e-02 -1.3167376496105848e-03  -1.5305114182881349e-02 -1.5360167018811117e-02 1.1949737492909680e-03  2.4231032234981343e-02 -1.5249945114697627e-02 2.4830480202181885e-03  1.9422217530561312e-02 -1.6708339344429435e-02 1.4236099377795564e-03  1.7286875333294194e-02 -1.3139746717450161e-02 2.1410537873082696e-05  1.8425224984498792e-02 -1.1426390302359687e-02 8.4366254831135315e-04  1.7264723250992691e-02 -1.3137780952856169e-02 1.1993443424837566e-03  -1.3687591523108076e-03 -2.5634879024145067e-02 1.5501768756475919e-03  -4.4107441741021479e-03 -2.3014604190403219e-02 1.1562619878114605e-03  -5.9375311723809459e-04 -2.4036620573021236e-02 8.2742296585507883e-04  -2.1531459769772474e-02 -1.4043104624834794e-02 3.8830549066225868e-04  6.4918848166240911e-03 -2.2909357395423907e-02 -1.0556492295520884e-03  6.1417441384411858e-03 -2.2125601975810628e-02 1.5625272475465849e-05  7.9615390126242316e-03 -2.4420132205942340e-02 1.3304349751541223e-04  8.4042461983310744e-03 -2.1337849194361824e-02 -5.4571302527735678e-04  -2.0088178478248706e-02 -1.0990471001522478e-02 -2.3992559147964737e-03  -2.0863550900746320e-03 -2.2711607951295110e-02 1.5583864178032143e-03  5.5279177890555948e-04 -2.2788637605343869e-02 1.4541066721672339e-03  -5.7094543166989536e-04 -2.3034937806392392e-02 2.4902496590699470e-03  9.4099268858749661e-03 -3.2910717822749146e-02 1.9915337457756274e-04  8.2187345533502303e-03 -3.3211646242720258e-02 1.4176004195649676e-03  1.6863972303251512e-03 -3.4193404470724144e-02 1.5406959762023102e-05  2.5038482266622798e-02 -4.6350692384379520e-03 2.4898715820300590e-03  2.4546018727979482e-02 -3.8173195343439940e-03 1.3911594465965563e-03  2.4084339030403999e-02 2.3691346366014229e-04 2.4673670199546055e-03  -3.4899701151288802e-03 -2.5269936338242899e-02 -2.5391695842450269e-03  2.6805552382197232e-05 -2.5526141976925085e-02 -1.4775173596068751e-03  -4.3449312986403634e-04 -2.5726459863563970e-02 -2.5429792581591775e-03  -2.1942153510537479e-03 -2.3427224370656585e-02 -1.5032849277047285e-03  2.3067940398020341e-02 -1.7318190173003384e-03 2.4419910977503331e-03  2.1490026712197817e-02 -2.8288389146422393e-03 2.4133083592709909e-03  2.1665141406875928e-02 -7.6951293126166335e-04 2.3945226458070958e-03  2.2668303646670107e-02 -3.0204677302852439e-03 1.4947233352307272e-03  -2.2403412593789595e-02 -2.5884637137972438e-02 1.1575511386824812e-03  -1.7175355655059135e-02 -2.4806828103140950e-02 1.8142088547672016e-03  -1.7026964423568242e-02 -2.9731283640244393e-02 1.5533624287945365e-03  -1.5413747170370291e-02 -2.6152661419095273e-02 7.2775005492832251e-04  -1.8098734838483840e-02 -2.0989189685876458e-02 -2.4830509150431273e-03  -1.4397659018255073e-02 -2.1235807491690014e-02 -1.4657587280429705e-03  -1.4206616022869564e-02 -2.4805873971388136e-02 -2.5144122153049212e-03  -2.0831214808721025e-02 -6.4533244907683859e-03 2.6710649142867372e-04  1.6297551617542795e-02 -1.8024950219284304e-02 -2.5908674693218342e-03  1.5114312416396704e-03 -2.4328049060261047e-02 -2.5435476892162350e-03  2.1624718957809066e-02 2.4462899089376954e-03 -1.8905413091667347e-04  2.3125261807653837e-02 1.4558457934103983e-04 -9.4972577084211294e-05  2.1635007635831951e-02 2.3421496824073585e-03 8.3193954902253768e-04  2.1716160373223554e-02 2.1999399993940391e-04 -7.5963159172926919e-05  3.3916100134533798e-02 -4.9311743322119975e-03 -1.7667005843539872e-04  2.8752479020241861e-02 -6.5727295323603297e-03 1.2393746849845199e-04  3.4237573750224876e-02 3.8924167012798866e-04 9.6820874734273156e-04  2.9536414960737126e-02 1.5080865574874222e-03 8.5555846910760261e-05  -8.1250060554527541e-03 -2.1269387163134201e-02 -1.5450940604504698e-03  -9.1001290015151094e-03 -2.1251232736932142e-02 -2.4998862296585151e-03  -9.6343607447500583e-03 -1.9454154530770259e-02 -2.4798520903305836e-03  2.9135991404326458e-02 3.5573403832396340e-03 -1.5864497824458147e-03  7.2516064637589122e-03 -2.1637485376660104e-02 -1.6926851038584320e-03  2.4289414047454765e-02 2.8824218871832648e-03 1.2657111683135856e-03  2.3093576848904812e-02 3.2642667363950474e-03 1.2687253254431229e-04  -1.1557804595499457e-02 -2.1271136816608895e-02 -1.5551755326397021e-03  -1.1052948262100079e-02 -3.2406455222608724e-02 -1.4218716723625071e-03  -7.0376256245847785e-03 -2.96498708070507