<?xml version="1.0"?>
<VTKFile type="UnstructuredGrid"  version="0.1"  >
<UnstructuredGrid>
<Piece  NumberOfPoints="621" NumberOfCells="2515">
<Points>
<DataArray  type="Float64"  NumberOfComponents="3"  format="ascii">-1.412883232192979 -0.498916897224404 0  -1.595864871923849 -0.7076981334402126 0  -1.424974064043019 -0.8180641451546321 0  -1.496133812848886 -0.6224620133938269 0.168029496722675  -1.073831515515874 -1.381296027576066 0.4703149899896178  -1.222912435612129 -1.211258208550986 0.5924324065281698  -0.9969898328475651 -1.363191667272982 0.7007929224873214  -0.9602840871252403 -1.119883154337391 0.5000000000000003  0.7119454820819836 -1.311017197308812 0.7850254167931945  0.6711564508304207 -1.401253329984251 0.5622240771778685  0.7873485614796214 -1.551119900712338 0.747618612172079  0.509899363520301 -1.411274404689723 0.7930410904030668  1.571223386396861 -1.222896538248188 0.681768998400601  1.365943112648017 -1.134934275590741 0.4914509233146168  1.447765498390705 -1.373330410045335 0.7315215413413203  1.404410164647943 -1.149349917793486 0.7975908961567035  -1.512011392687988 -0.7917510345546442 0.2966161284015407  -1.82007427255317 -0.8171614684481319 0.2701477341636163  -1.623972487846827 -0.7834420794628646 0.5282118138501414  -1.683847711978677 -0.6637140041757016 0.3554943844166969  0.803830552736335 -1.241808787336111 1  1.027552987385453 -1.122421832866236 0.7520124683793958  0.9317589561501367 -1.126789045658179 1  0.9466024263613499 -1.337784875385508 1  -1.34376490772025 -0.6629168230233793 0.5232079866624604  -1.540227286709983 -0.7594309578000181 0.7158969883666931  -1.486680182709609 -0.9357655947055598 0.5005733069352488  -1.325812149253608 -0.9556560748352179 0.692162030564986  1.015601792777485 -0.8204518079745813 0.6525547521204649  1.304637174418844 -0.7075626243921807 0.5186954339142219  1.054700059797406 -0.6058616406515142 0.4895215437898623  1.110028565937067 -0.5800778232130865 0.7539770568553924  0.9065780864506976 -0.7643401139982925 0.8193321493755804  0.8427521110205465 -0.5344621625620394 0.6951122958534079  0.8874756245502677 -0.4507903538350485 1  -1.334552913091629 -1.215813856519444 0.3976467594449599  -1.415326496627902 -1.118270480731319 0.5860770877722016  -1.289838922750997 -0.9992737188619498 0.3584443832289749  -1.016378813307524 -1.085925806803902 0.7785250480141073  -1.319832932085968 -1.220158808863818 0.797553015984893  -1.04215606515532 -1.265258740361177 1  -1.224143446475008 -1.257655592102634 1  0.6565945984642327 -0.7485610582252132 1  0.7260749200787838 -0.683994037072515 0.7575866569922562  0.7862467646240011 -0.6106744323530362 1  1.334629349047023 0.1545402339819274 0.6080677862736639  1.481952171293317 0.069454883228632 0.4891924348618718  1.292228821875236 0.3076565757391458 0.3322186037030394  1.499512864842357 0.3016748379228968 0.4450803538138309  -0.4088784021612257 -0.9098780294493575 0  -0.5229419073512893 -1.071131864134972 0.1858598554011229  -0.2291981602613921 -0.9704387807865139 0  -0.3199640933144202 -0.9429052360103518 0.2421718464526027  0.4437787684872145 -1.472384709319954 1  0.3808210433871149 -1.763882641155164 0.817384939724187  0.5886194165627399 -1.607799173493189 1  0.2828443174131989 -1.737656437702833 1  -0.8300753132502592 -1.509513793106689 1  -0.9480652577231136 -1.538949907681568 0.8061489537317872  -1.038889265765676 -1.701558295737102 1  -0.9927400037819177 -1.469592821760114 1  0.3085523311331526 -1.969610247897571 0.6877920714727481  0.4909769421302074 -1.93099433805855 0.7575947101728453  0.4013802327098077 -1.958173202723359 1  -1.311232433775281 -0.5655346387499858 0.2575624298059242  -1.115114617145163 -0.4774046250283511 0.183365501259989  -1.389282245793132 -0.390104725039531 0.1762849063852214  -1.272047610987646 -0.2896564134506388 0.3164264087849299  -0.478103915917917 -1.622351537092959 0.6977077997690853  -0.7019581915565072 -1.428580415300582 0.6030955109277132  -0.5009139441539338 -1.349251873811594 0.5222432048981768  -0.600331598708143 -1.59479459233563 0.5327841362643094  -0.391399680066276 -1.237628786651703 0.6919365007968804  -0.2590693906238568 -1.20275231542913 0.4440646667880484  -0.0283024105191868 -1.319764063833097 0.6643409374643552  -0.3013774395956234 -1.46260667850183 0.4980611061261317  0.3070347646120418 -1.231266475456671 1  0.4006956025444619 -1.24843802094553 0.6812500201025888  0.2057664659883401 -1.423434689071494 0.7640294242581815  0.8427521110205465 -0.5344621625620393 0.304887704146592  0.9275246612083398 -0.3706670534361827 0.2407973732256985  0.9290934823066148 -0.3654953433663091 0.5  1.254380730905587 -0.8083467088102502 0  1.452879240810067 -0.9256401028442123 0  1.469388374880087 -1.034040776775462 0.1882486755660968  1.347617246490652 -1.061163179822044 0  0.2382892175692876 -1.471591899036973 0.4955209781265861  0.2441482264665806 -1.68711095498594 0.2543611194868012  0.1435408183010254 -1.450724164001282 0.2140138195018315  0.364943845569369 -1.449405072691717 0.2215112330483742  1.059531587242102 -0.5973251627738123 0.226746809598138  1.234689442690562 -0.4855157749746795 0  1.12700915308356 -0.3265270678978057 0.1991237339620514  1.228727303117767 -0.459331046989373 0.3236051145881703  0.5031802934273266 -0.8594726184264059 0  0.7805047611923689 -0.9061187185566575 0.2197836778390664  0.6565945984642327 -0.7485610582252132 0  0.5790946986177532 -0.8121635823205643 0.2406591020066253  1.29264339957742 -0.7108631639275693 0.248925098563288  0.2062702119573308 -1.209832294552009 0.5069451591351182  -0.03861139831730298 -1.305902836371665 0.3300992328426874  -0.05411455619544295 -1.180335689722473 0.5033519982168086  -0.2895078849523348 -0.9521440258122447 0.5362539270910905  -0.1357582835267979 -0.9866289761380859 0.6952505369826913  1.438290730876674 -0.4534288042395038 0.1837168804337665  1.519369205000765 -0.6057271090750227 0  1.685940558953262 -0.4500196176801594 0.2303894085313369  1.548728803732611 -0.6572481953988726 0.3158315927164428  -0.9807852804032304 -0.1950903220161286 0  -1.209935812895535 -0.3819042831015633 0  -1.828344611031377 -0.8016887534344467 0.501479594258776  -1.736582952516703 -0.973362741762956 0.6816999714220926  -1.828344611031377 -0.801688753434447 0.7315233149267526  0.8638068359660822 -1.218302366084752 0  0.9324225297118618 -1.069640369270793 0.223104162955864  0.7932047642417024 -1.26389931307753 0.1963766327108795  1.030433715894798 -1.231858392111446 0  -1.155897705984207 -0.6056548263397348 0  -1.025812920413763 -0.6511834817819452 0.1439798677502316  1.183651748105934 -0.0883654662417532 0.1686858213653584  1.475518248201104 -0.03253804452700697 0.1856409670857923  1.244700343070279 0.08518987797507366 0.2297974176709325  1.302253607553284 -0.1432650666920791 0.3118732805312475  0.580573651550607 -1.903815473393742 1  -1.029314058751751 -1.277283305743657 0  -1.178992651785597 -1.60725437485166 0  -0.814899804420075 -1.518363461454386 0  -1.064430939898313 -1.438297828212334 0.1876351619911193  1.404571026518731 -0.5037511239056995 0.5348683201513614  1.691569412576089 -0.5609133899741244 0.4730081079198554  1.639622120442623 -0.7656643535348759 0.5754969080455435  -1.100293793730394 -1.440233234786469 0.8308817755846929  -1.409648970501671 -1.417959626110762 0.7315592004692577  -1.259072795543131 -1.541534299303341 0.681542773860404  -1.337314418527182 -1.477323058760319 1  -1.252030506876232 -1.547313756251158 0.4762918344255788  -1.409648970501671 -1.417959626110762 0.5014885213334912  -0.4956491309591998 -1.563380666785781 0  -0.6869697439873288 -1.871540571604282 0  -0.7580030332512193 -1.620602597475575 0.200800306043187  -0.2125504397148364 -1.162691776221664 0.1975610850782581  -0.1357582835267979 -0.9866289761380859 0.3047494630173088  1.460188519029665 -0.1629806199680669 0.5487051496768689  1.300998876090121 -0.06620015533026624 0.701459469341089  1.273734645489973 -0.3733223405901023 0.6677503680638732  1.462819035581377 -0.247240831275101 0.7930628205732373  -1.14427663396646 -0.9784691238319053 0.5430642805458707  -1.149350747726731 -1.254278997813574 0.2766244916622759  -0.9563006605232179 -0.2758052966743181 0.7404721885678482  -0.8818497861445191 -0.4613155571981952 0.7311394935597686  -1.115941880422272 -0.4305433895007025 0.796606423718511  -0.9256039491140714 -0.3769987926575506 1  1.670473167333107 -0.1571316353029762 0.6661267788475292  1.979883779915309 -0.2042434100745073 0.712108154714385  1.818614516256198 -0.02030257729722755 0.8224734275766558  1.718772121177439 -0.3866834318575563 0.7667746127709867  -0.4351952344254975 -1.947915534096728 0.6879022171241533  -0.2402120605469595 -1.711293099448459 0.5951721536062687  -0.4600007231585856 -1.741224516301115 0.839054333966232  0.9080933109673303 -1.392933173756074 0.3219887364722751  0.818663626867002 -1.250496447075703 0.4758235842672084  -1.460269210528559 -0.997142497751212 1  -1.536047625067858 -0.9519929514599034 0.8052694561656402  -1.588692758267181 -1.201610047034396 1  -1.696041285575386 -1.049210865804753 1  -0.9276927122636932 -1.18966297302634 0.2221042075729678  -0.8872796870605097 -1.4002985370975 0.3147842555428691  0.5790946986177532 -0.8121635823205644 0.7593408979933747  0.7288306932309858 -0.9486137962695518 0.8304626122976658  0.7999786526575325 -0.8565217994501219 0.6452470139574003  -1.288568259440269 -0.805512686298428 0.2258674758772604  -1.225520025366661 -0.794093745484538 0  -0.8370702135273155 -0.5450922451011507 1  -1.027492750785988 -0.6524847028891798 0.8199378413995048  -0.7786461866372218 -0.6199357634264332 0.8011130297803182  1.157231385552274 -1.253901033215793 0.281726668262764  1.224429837858597 -1.367445394691974 0.1621926997827459  1.177855468001781 -1.310694360819405 0  1.636952961386825 -1.142804819387519 0  1.677712194062701 -0.09696593309475177 0.3004554327500731  0.7464136245425157 -0.6592112539775661 0.464253437432927  -1.575027654417853 -0.4272778672614745 0.3583387676772505  0.2714449589252247 -1.737
[...]
<PointData  Vectors="f_10-0"> 
<DataArray  type="Float64"  Name="f_10-0"  NumberOfComponents="3" format="ascii">-1.2218729514367381e-02 -6.8178617936529105e-03 3.6836900428519515e-04  -1.1749380853515626e-02 -7.3969346514195754e-03 5.8865863248519729e-04  -1.3287026918001389e-02 -9.5326575072755895e-03 1.6493699912712462e-04  -1.1806689590870948e-02 -7.4619658049844759e-03 2.7700767786863873e-04  -1.1943002599791405e-02 -1.1383242204469894e-02 3.8916200348486456e-05  -1.3091312851158702e-02 -1.1497959980166833e-02 2.9052021664560624e-05  -1.1810195079898127e-02 -1.1460140094147503e-02 -1.2090582262288910e-05  -1.3333289376236427e-02 -1.2294583252851954e-02 1.8586434515155361e-05  1.0589346248085569e-02 -1.1405165301330631e-02 2.5114126086821062e-05  9.4138711268668199e-03 -1.0457477692975748e-02 -6.5961547715192036e-05  9.0415517552854922e-03 -9.9857639585638897e-03 -3.0954059431263510e-04  7.7651752833590498e-03 -9.8154970374204030e-03 -3.6282482347877441e-04  1.2875631780409097e-02 -1.0159633124965988e-02 -3.2165840805357737e-04  1.3136439565576946e-02 -1.0899879963668294e-02 -2.3922039702501922e-05  1.2705553253249279e-02 -1.1033157951212765e-02 -3.9480808990717211e-04  1.3198512256694810e-02 -1.0869097633797885e-02 -2.4022768139860383e-04  -1.2320388938874960e-02 -8.5721951509500852e-03 1.8207860964647600e-04  -1.0877372748597397e-02 -6.2118096392206777e-03 4.8492944736660193e-04  -1.1587715719568691e-02 -7.6146701096136736e-03 2.6146835495370716e-05  -1.0603281399902990e-02 -6.2578639799408739e-03 2.6140635185880999e-04  1.1921205858166148e-02 -1.2409961590864533e-02 2.7849289293171666e-04  1.3419790175440566e-02 -1.2226034945087349e-02 2.4752138761892069e-04  1.3460224652943062e-02 -1.2886832567247927e-02 5.8901075304825391e-04  1.1916420415059649e-02 -1.1953844451646876e-02 -4.6079875850918319e-05  -1.3025381065891845e-02 -8.9571553676418020e-03 4.8524770557343733e-05  -1.2022059269189820e-02 -8.1487162605889188e-03 -1.0287817982649049e-04  -1.2804525616566901e-02 -9.5286295518739374e-03 4.9250191219228932e-05  -1.3491438642097352e-02 -1.0698787668281123e-02 8.7574905711818138e-05  1.5021311076581917e-02 -1.2391126433481246e-02 3.2490088445070406e-04  1.3332046779775553e-02 -9.5764435759788501e-03 -7.1958452628739685e-06  1.5533138150847125e-02 -1.1206060255959696e-02 -3.1007753948813222e-05  1.5131557361406731e-02 -1.0462316629128941e-02 4.1281886700665491e-04  1.5941138542906748e-02 -1.3397889509922668e-02 9.6701621573135055e-04  1.8532051825608631e-02 -1.2869691991305081e-02 6.5042670165472679e-04  1.9447416284200953e-02 -1.1497835248806621e-02 1.6318101036510836e-03  -1.3090823215553809e-02 -1.1146843129813679e-02 9.6104645446191435e-05  -1.3144289728477651e-02 -1.0635410274993753e-02 -1.1477118059747522e-05  -1.3559958438730783e-02 -1.1010019282874229e-02 -7.6643126759904085e-06  -1.3705858170179401e-02 -1.2356698818709625e-02 4.0730393354622375e-04  -1.3179271759111381e-02 -1.1316120947331809e-02 -1.1617300528831898e-04  -1.2854577138824373e-02 -1.2198784196380969e-02 1.4677609342728006e-04  -1.3275051528624864e-02 -1.1909501970534565e-02 -1.4795594632546682e-04  1.6825975534552482e-02 -1.6594227834891225e-02 2.1445854814729419e-03  1.7465283869342162e-02 -1.5334036041291356e-02 1.0385784362328995e-03  1.8678048925522370e-02 -1.4599932012077280e-02 2.0107092139455460e-03  1.1445239836507165e-02 2.9584191906308534e-03 -1.8813499447792949e-04  9.3366346881528436e-03 1.1491922538104159e-03 7.4097050931450359e-06  1.2488542587396741e-02 5.7170932999781789e-03 1.1211817318570850e-04  9.9019702018183671e-03 4.2456988896645738e-03 7.4350248111382301e-05  -1.1448898576651014e-02 -1.7483040609355349e-02 -9.1255343027128418e-04  -1.1522702890046895e-02 -1.3638224580060729e-02 -3.4800512500173994e-04  -6.6066809519918597e-03 -1.7291619639685049e-02 6.5424921702646351e-05  -9.3163725048349723e-03 -1.6985616621585747e-02 -7.3660077052455463e-05  6.3330858331939518e-03 -9.1192181173435170e-03 -8.7487092214779045e-04  3.6596304637018912e-03 -6.1311016367475400e-03 -7.2313595580610263e-04  6.8344223234628881e-03 -8.8006358098962310e-03 -8.7113315219305022e-04  2.7787733210208852e-03 -5.8096239053762617e-03 -1.1730326686608945e-03  -9.8068179243402699e-03 -1.0729524117941033e-02 -4.7232866632440981e-04  -1.0275409413864629e-02 -1.0713557284182306e-02 -3.1364895384760721e-04  -9.5526188077478501e-03 -1.0680130658196821e-02 -9.5206147016989415e-04  -1.1169322270534340e-02 -1.1442445471364695e-02 -3.9087932704227532e-04  1.8106060022427145e-03 -4.5038649776570497e-03 -4.5190749480544367e-04  3.3218140417579649e-03 -5.8351112587984102e-03 -6.0124559393852936e-04  2.4294640608847813e-03 -5.1776058446754659e-03 -1.0550970954677570e-03  -1.3147199850433054e-02 -8.4142229816117943e-03 4.4532893592428649e-06  -1.5310727492853667e-02 -9.4230088809079578e-03 -2.9999800347134235e-04  -1.1790824682830305e-02 -5.8489947430629703e-03 3.5432309768996596e-04  -1.2867155488451430e-02 -5.2757732906161276e-03 1.9758886295257824e-04  -5.7636923221329869e-03 -7.7504072060256175e-03 -3.8316464643868597e-04  -9.5012873662724106e-03 -1.0359021789570762e-02 -4.0938224322830385e-05  -8.2618192618289839e-03 -1.0315316320135666e-02 7.1147726818955649e-06  -7.1630210059759588e-03 -8.6250094327858448e-03 -4.1304077748984364e-05  -7.8683503406803256e-03 -1.1393925808328072e-02 -1.4743229927213644e-04  -5.9603601423974138e-03 -1.1784919533721100e-02 1.0343457085725150e-04  -6.1583352407488222e-04 -9.5499258651727953e-03 -5.0310260304629385e-04  -4.7705065961640199e-03 -8.2679683176616510e-03 2.8015979518365868e-06  6.3000554772579057e-03 -1.1730093735934493e-02 -7.0478892202515677e-04  7.8319694959739262e-03 -1.1272148923435603e-02 -1.5220494708852422e-04  3.4801345639491298e-03 -8.4641299523146897e-03 -7.2823080333884928e-04  1.8508806369803142e-02 -1.2875225956450154e-02 -6.7843828130890560e-04  1.8911476800886465e-02 -9.5177633190584223e-03 -5.6554723296220770e-04  1.8741470285404155e-02 -9.3496599417926471e-03 2.2152742977228126e-06  1.4215927592939090e-02 -1.0815243333733298e-02 -4.4208801969477764e-04  1.3304652127671051e-02 -9.9698284940225347e-03 2.0696892857301091e-04  1.3066783625273658e-02 -1.0180205663420164e-02 1.8982816775698957e-04  1.3695262273856645e-02 -1.1175364438555794e-02 6.3244227325665527e-05  3.7135480082704799e-03 -7.9048829735791117e-03 2.2883167178683516e-06  2.6623133571875473e-03 -5.9296210892314030e-03 6.0146763042283888e-04  2.3359796477873873e-03 -7.9396269010709643e-03 8.4869706456781673e-04  5.6460514776447250e-03 -8.7687158034226217e-03 5.5757450676410727e-04  1.5586341394817640e-02 -1.1152485573748257e-02 -5.7620243627206117e-04  1.4113939165718556e-02 -8.2610551355597750e-03 -2.2994471823232216e-04  1.5199967522446050e-02 -7.1346373921059372e-03 -1.2810423992921791e-04  1.3687727193071169e-02 -8.0217844740765980e-03 -7.8436055541224525e-05  1.3762227075585567e-02 -1.7448791869007291e-02 -1.6028091235293813e-03  1.4865118092452603e-02 -1.4037335713254979e-02 -8.1693959112836938e-04  1.6861428063581610e-02 -1.6626541317857572e-02 -2.1586883731015702e-03  1.5121502000939308e-02 -1.6528441510250319e-02 -9.1693451513196833e-04  1.3508720322629288e-02 -9.7843082240965957e-03 -1.8026408058659823e-04  4.7130870256295605e-03 -1.1612536820557171e-02 -9.5753154649186773e-06  -8.6086969133772979e-04 -9.7930374836583279e-03 5.1547390718331904e-04  -1.3774763176583266e-03 -1.2176372983664351e-02 -4.0918579577786219e-06  -8.3282257089478395e-03 -1.6991126502581357e-02 2.7350680952103848e-05  -4.0665966566177623e-03 -1.6794450864548970e-02 -2.6138482568130699e-04  1.1443941811817992e-02 -6.2260546519033984e-03 2.4370369459431911e-04  1.1682189339276845e-02 -7.1263840056874136e-03 3.8512890497766512e-04  9.1401020381615353e-03 -4.3318368576158034e-03 3.7102224572521143e-04  1.1393151837559672e-02 -7.2844356979928715e-03 1.2765024751346904e-04  -1.9132269391671522e-02 -4.9250136573435084e-03 -4.3117164409545874e-05  -1.4316382735766877e-02 -7.0893462472487690e-03 6.8503616878399536e-05  -1.0661193210722675e-02 -5.9815418856591475e-03 6.3844437107105889e-05  -1.2005814645567728e-02 -7.9242132168875195e-03 -2.5156636462867122e-04  -1.0709483496186939e-02 -6.0012219525200552e-03 -3.5260545163057975e-04  1.2445924264075106e-02 -1.2522485041782610e-02 -3.8578883935447565e-04  1.3664687118021013e-02 -1.2669871300308534e-02 -4.6826724259527451e-04  1.1552851727976989e-02 -1.1861408179049531e-02 -1.6078651192779532e-04  1.2985587915649865e-02 -1.2310522060172942e-02 -2.2404316017538218e-04  -1.5102264207600540e-02 -1.0184438397245430e-02 -5.9557066044406328e-04  -1.5912723209449912e-02 -1.1840145622079419e-02 -7.9527832797732451e-04  1.4139510673857316e-02 -1.8636348545718073e-03 3.3561221122234089e-04  9.5086466770675886e-03 -3.2107869994559376e-04 6.4682909932288490e-04  1.2894231556519978e-02 1.9537490126191655e-03 3.7323323548366474e-04  1.1953974799863092e-02 -2.5749660862615857e-03 2.7745859357381961e-04  4.2126501123498196e-03 -6.7953084181346041e-03 -1.1697618264844669e-03  -1.2758713304064955e-02 -1.2158246432399633e-02 -6.2598179648274581e-05  -1.1081152477512348e-02 -1.1340365587233350e-02 9.0591606852965416e-04  -9.6451588641829865e-03 -1.0588763632395450e-02 5.3506720761165808e-04  -1.1622073022577832e-02 -1.1329742112803453e-02 2.5317237248105530e-04  1.1890423174039424e-02 -6.9974789440939685e-03 -3.2037534248814491e-05  9.7398792464115889e-03 -5.2842104844835376e-03 1.5726241207324305e-05  1.1349872511251087e-02 -7.3725234660880334e-03 -1.2122269527762101e-04  -1.1752785735270834e-02 -1.1399379494004347e-02 -2.4042990655724319e-04  -1.2562960146882485e-02 -1.1156165192200754e-02 -3.2565741781925345e-04  -1.1586880938841408e-02 -1.1201829843434751e-02 -2.5931045175256760e-04  -1.2460580417398700e-02 -1.1620667880756321e-02 -7.9155445281395905e-04  -1.1496010178188980e-02 -1.1130375461086800e-02 5.9615532989107010e-05  -1.2500101096090900e-02 -1.1076759601048597e-02 3.2260733361836041e-05  -6.2973305739622955e-03 -8.5363780531863033e-03 9.1202952666146159e-04  -5.4425842478794976e-03 -7.7670664473175124e-03 1.1408757987661853e-03  -8.3010014661979246e-03 -9.4169988466373429e-03 4.5350843775213877e-04  -5.2495727078990815e-03 -1.2592649314021974e-02 5.0554430770491344e-04  -4.1252375538778476e-03 -1.6799850439287133e-02 2.7650883952599887e-04  9.8170675985497658e-03 -2.2384701286551185e-03 -1.1424627155293098e-04  1.1890287732497697e-02 -1.1306906069980078e-03 -3.4207934954998159e-04  1.2951256088017858e-02 -6.5257109062891597e-03 -7.2865658405756918e-05  1.0217562275679271e-02 -3.4449276635751007e-03 -5.0509586781756857e-04  -1.3973685116753369e-02 -1.1733809417052632e-02 9.8817425763035070e-05  -1.2898472918455027e-02 -1.1674733983754321e-02 3.4336073759258614e-05  -1.9018922368240220e-02 -7.1572813818787549e-03 2.5461064201539902e-04  -1.8917716997526601e-02 -1.1457330664622758e-02 6.2420901262619320e-04  -1.5307777940940886e-02 -8.8247702641719855e-03 3.3099671078386825e-04  -1.9392531277025622e-02 -9.6361764681786224e-03 1.0962087352713252e-03  7.7783584640462675e-03 -1.4511037696413266e-03 -3.2809770527749674e-04  6.1497342523538119e-03 -8.4010279468841784e-04 -3.5938637530293338e-04  6.6166239401538041e-03 7.1805500469649592e-06 -5.4751410625297607e-04  8.4992963817993126e-03 -3.5043425806862956e-03 -4.2970926847542501e-04  -2.8838251987744973e-03 -5.3399024991392209e-03 -4.2609418787711541e-04  -2.6173520660039977e-03 -5.6765775052207042e-03 -2.3082378650018988e-04  -4.6447565512648331e-03 -6.8057142538495673e-03 -7.1058119819498739e-04  1.1093841658457683e-02 -1.1195700648683657e-02 3.2149722982938166e-05  1.1757979017465312e-02 -1.1842418886878139e-02 -3.2929821799683875e-05  -1.3430940152592826e-02 -1.0287234839980220e-02 -2.6153411775911047e-04  -1.2760369434181906e-02 -9.3723110841288874e-03 -2.1795079486220452e-04  -1.3276853300258342e-02 -1.0294286586428754e-02 -7.9622937334427181e-04  -1.2778404199102016e-02 -8.8782175998425670e-03 -8.6453359523224415e-04  -1.2862048757764841e-02 -1.2185026341367115e-02 -2.3809891903144346e-04  -1.1004096435189291e-02 -1.1104501943288794e-02 7.6016445607589035e-05  1.5135677263452421e-02 -1.6661845468454867e-02 9.1229382830235531e-04  1.4384649071065200e-02 -1.4117021418668798e-02 8.7681347819709265e-04  1.5258287471124857e-02 -1.3984200585636817e-02 4.6386342172003618e-04  -1.3705930617376861e-02 -1.0348558062066700e-02 -1.3687118388890055e-04  -1.4483057463853640e-02 -1.0908787158865332e-02 -4.7363883294546544e-04  -1.9009405628235960e-02 -1.3273163030024652e-02 1.6519360327694678e-03  -1.5820083047071082e-02 -1.1860258537686127e-02 7.7151902389309824e-04  -1.8228488493031724e-02 -1.4408969266575072e-02 1.1799785995512805e-03  1.2835145108393670e-02 -1.1674454412248807e-02 -4.4077706393119329e-06  1.2477168283254425e-02 -1.1547599367566334e-02 2.5092816530451783e-04  1.2870387486536903e-02 -1.1945115535899253e-02 1.9506640672579129e-04  1.3081318969235181e-02 -9.7482981144977141e-03 8.5427685150696927e-04  7.5760526723185383e-03 -8.2703912036411734e-04 3.5356916249629287e-04  1.7584153959223723e-02 -1.4742540142009226e-02 -1.3246255189363528e-04  -9.9841334127298443e-03 -4.8765674698788355e-03 2.5741059184303163e-04  2.7228004019750757e-03 -5.5988889129951194e-03 -1.2209077501599985e-04  2.3256979105231463e-03 -6.1483321869269638e-03 -8.2506844389792437e-04  2.3962797035837906e-04 -4.5554566289084499e-03 -7.4756196587082537e-04  -1.5402749799283674e-02 -1.3671413613520682e-02 9.1498295986893255e-04  -1.2350861954419673e-02 -1.3022403801913144e-02 2.6254129858278798e-04  -1.3691972340671323e-02 -1.4057598265807082e-02 8.0447061626269046e-04  9.8041197334640343e-03 2.4452157272047336e-03 -5.3159184539564855e-04  9.4883032714126198e-03 3.8179025374615320e-05 -1.1106170994156206e-03  1.2956699567427491e-02 3.1768269266114731e-04 -8.3906799151981252e-04  -4.7149165012274428e-03 -6.7639167581797005e-03 7.2073019664843646e-05  -2.7380488039538812e-03 -5.1791937288243337e-03 2.0430096337464965e-04  -4.3420370567809740e-03 -6.5467036255788891e-03 -4.9511356704831235e-05  -3.5630095185163317e-03 -5.9513247628028626e-03 7.6855776407668019e-04  -5.8722431855175138e-03 -7.6604843553429282e-03 6.0096221063826185e-04  -3.5315221348056333e-03 -6.0744293735001372e-03 1.0886442570501682e-03  -2.7274630966816543e-03 -5.2259837704536653e-03 6.0303796296303197e-04  1.3877503078084450e-02 -1.2929583107999869e-02 -7.4536865013957081e-04  1.3739617625029791e-02 -1.2043425525171625e-02 -2.0184699807505703e-04  1.1322564912251389e-02 -6.8995378104958812e-03 -5.6595451416632998e-04  1.1243162235790241e-02 -7.1231556951881006e-03 -3.9769234379168929e-04  9.5793255786796021e-03 -4.6890420882623150e-03 -7.3060810037488516e-04  9.5650926039119680e-03 -4.4748735816234533e-03 -9.3306711896492221e-04  8.1318975868595947e-03 -9.6328647730776068e-03 -7.9632342857307019e-04  1.0214135631410038e-02 -1.0735470119954254e-02 -4.0781028187034883e-04  1.0192843006775545e-02 -1.0981437851784466e-02 -5.3918296316482462e-04  8.2033970813913462e-03 -9.9246406617148498e-03 -1.0763057747643452e-03  -1.3279532798344826e-02 -1.0594512021349521e-02 2.2129327802717597e-04  -1.2774367867001864e-02 -9.4875330059568351e-03 3.5207806638286137e-04  -1.2893546825090687e-02 -1.0383643271321037e-02 8.1842929599931693e-05  -1.2684911978558774e-02 -9.3339301626547307e-03 -9.3269574751640803e-05  7.9174482612558855e-03 -2.8547914427125651e-03 -6.7994489944858569e-05  6.9104849669524744e-03 -1.8094805169483570e-03 1.2028822324840881e-04  8.2773959116256776e-03 -3.2684642596497995e-03 2.8070954439774880e-04  -1.3174881087923711e-02 -9.3934778983552330e-03 -6.0289246619274425e-05  -1.3654051519871615e-02 -9.8127868589062712e-03 2.4192984407152464e-04  -1.2507203462265052e-02 -1.1184160449613985e-02 3.8592655509508711e-04  1.5765570079775491e-02 -1.1725357280987302e-02 -1.1210957690303293e-03  1.4110597959369661e-02 -1.1985016594334747e-02 -3.9841286343993750e-04  1.2820828856132976e-02 -1.0051224109609808e-02 1.1115716528776684e-06  1.2425176418331156e-02 -8.7664244373915033e-03 2.8919180754697265e-04  1.2902754998240472e-02 -1.0142442130403719e-02 3.8117269067718205e-04  -1.2576342246727250e-03 -7.5167238475169883e-03 9.8044464266924510e-04  -3.5534870827748791e-03 -6.2632313309377314e-03 5.5569746625327770e-04  -4.8707357775501807e-04 -5.7110805432405987e-03 4.8311019515477301e-04  -1.3954986767502510e-02 -1.0764809698035728e-02 -7.5531765534985584e-06  5.5442295918965469e-03 -7.7161627847532506e-03 -4.2660467108865391e-04  4.9246278788954104e-03 -6.9563031027089972e-03 1.3627220968498379e-05  7.1759416513379288e-03 -9.5774864325607056e-03 3.1294777518897839e-05  6.9954343039120024e-03 -8.4973342221565662e-03 -1.8780613148169730e-04  -1.2687331558274988e-02 -8.8622648545639005e-03 -4.2690327196810582e-04  -1.4821622578288713e-03 -4.8739905485126822e-03 7.4425462588559972e-04  3.9995425114816200e-04 -4.6107410979492943e-03 6.8999679425230456e-04  -4.0003219354441659e-04 -4.8542084567108623e-03 1.2001749287260839e-03  7.8897707382596799e-03 -1.6963835472019521e-02 9.9511829554220611e-06  7.0210084723357560e-03 -1.6973111117982526e-02 8.4663391533477107e-05  1.4812294534663800e-03 -1.6557769392150239e-02 1.2956936211450008e-05  1.0543247639851415e-02 -3.8406914607461221e-03 7.7044406770856609e-04  9.4245177112699599e-03 -3.1033525475088930e-03 4.7910091783916474e-04  7.9868537369196108e-03 1.7314335523003745e-04 9.7235730617102134e-04  -3.0935858331540733e-03 -7.9476719585562881e-03 -1.3828026662796322e-03  2.2299443863295885e-05 -7.2557536512807639e-03 -9.2287074044876914e-04  -3.9058551091608319e-04 -7.6378638915414743e-03 -1.5993873488320130e-03  -1.7215767801396983e-03 -5.5444038423887437e-03 -7.7098037679033992e-04  7.2902769639771672e-03 -1.1248473483973093e-03 8.1345780231906564e-04  6.5092657622247072e-03 -1.2331493667581278e-03 6.7974674552226529e-04  5.8744819818075189e-03 -2.4856412395668227e-04 6.3304564888323658e-04  7.4324914144627682e-03 -1.9750725284139506e-03 4.8539461862651026e-04  -1.6390859835808069e-02 -1.5890036227752233e-02 -6.3956229851185335e-04  -1.3943909812827062e-02 -1.4263921232081183e-02 -7.5518702779308168e-04  -1.3448233976480994e-02 -1.6940447599007213e-02 -6.1966886897048029e-04  -1.2826568266975346e-02 -1.4072486674395030e-02 -1.9905848936569521e-04  -1.4370346653380472e-02 -1.3594515313755605e-02 1.1289786271262692e-03  -1.2122846426123915e-02 -1.2090210997901960e-02 2.4434622794964998e-04  -1.2101105974402922e-02 -1.3591245902565764e-02 7.2212860639955421e-04  -8.9170319410316681e-03 -3.9423473306143542e-03 1.2387996038512697e-04  1.3303441857114838e-02 -1.2317309682013137e-02 1.8692163533410880e-04  1.2406931146027619e-03 -6.2973354941092555e-03 -1.4301041626569957e-03  6.0930074107629394e-03 1.1611732918918205e-03 -5.8267639777316346e-05  6.8510607744941649e-03 1.1288355725749618e-04 -3.4721498882990151e-05  6.0826653351400087e-03 1.1159613138438964e-03 2.5941114584638318e-04  5.7272535807046778e-03 1.7314476235303126e-04 -2.5992929852903728e-05  1.8662711931904143e-02 -3.8407349702388677e-03 8.9264087688332257e-06  1.4177242409389671e-02 -5.7910682379845868e-03 -9.8140534881182412e-06  1.8507295654963958e-02 3.2065044930822860e-04 -5.5441120076565819e-06  1.3470685590017096e-02 1.3290669771402084e-03 1.2093128068623895e-05  -6.6687660897724764e-03 -8.2879796093355690e-03 -5.5308637326158142e-04  -7.6813855237513667e-03 -9.2908898013314908e-03 -7.8706309272732317e-04  -7.6466037087145229e-03 -9.4973689565266781e-03 -1.0436697359396381e-03  1.3544694946704213e-02 3.1561163621170937e-03 -3.3752036250625966e-04  5.8840342445700888e-03 -7.7578742408045418e-03 -6.5535764846109241e-04  8.5423582318909421e-03 2.2161869225688891e-03 4.8299266728499214e-04  7.5671775558154688e-03 2.2773331113505341e-03 3.6794567085003034e-05  -1.0023042778277631e-02 -1.0705011522103904e-02 -1.4655916867752891e-04  -9.2418313250147172e-03 -1.7062525782847192e-02 1.4848216017403421e-04  -6.6483551347613383e-03 -1.322324311347325