<?xml version="1.0"?>
<VTKFile type="UnstructuredGrid"  version="0.1"  >
<UnstructuredGrid>
<Piece  NumberOfPoints="663" NumberOfCells="2682">
<Points>
<DataArray  type="Float64"  NumberOfComponents="3"  format="ascii">-1.146527028962373 1.167114312334814 0  -0.9184143406250429 1.15951227012599 0.181890248271007  -1.117408632183515 1.349324948359656 0  -1.127667895979856 1.429138092744414 0.1957268739948787  -1.462744779920422 0.4173062759430208 0.7927788025429325  -1.315004706961013 0.6972167789990056 0.7557377227898123  -1.24261630433174 0.4137133052539228 0.6762314288941822  -1.564690195006766 0.6196325639107423 0.6892222911693506  -0.843554369120634 1.571972381406213 0.1893355977975628  -1.023406865707073 1.709833810979671 0  -1.105932760739799 1.665722801080373 0.2684407995307424  0.7774620075900223 0.6213786897703732 0.6301803247013167  1.111892032715658 0.6950153870911676 0.6782986928341398  0.9398731368034582 0.9099149963248007 0.6065948067581353  0.9918676312209388 0.6543886671119523 0.8433271873984621  0.941138706865577 1.555920911307085 0.1704413559358486  1.182595711909019 1.604297419826286 0.2395450545717993  1.105979666019659 1.665697729685953 0  1.023406865707056 1.70983381097968 0.2701021146961656  1.103193596384578 0.3504086635323349 0.7926247744809052  1.167609977272698 0.4754420500101144 1  0.9531946147586513 0.2860445573368379 1  1.298466289634289 0.2582810036338386 1  -0.6404454764412717 1.557452185064736 0.3229483011552194  -0.6049140089552396 1.896431906697228 0.3184572261395962  -0.5174396855537765 1.720603924206695 0.4455678853971146  -0.6789195424108355 1.679413385346867 0.172716471184192  0.3335227193744119 1.455823083785915 0.5059548517043282  0.5147335164951123 1.695375458309009 0.4045574146742378  0.3114922696473099 1.749879024378842 0.4952208711948659  0.362054055747579 1.621275077683425 0.6647683656809289  -1.297015254039048 1.200330857140984 0.198215552709849  -1.513321347298536 1.293450377028231 0.318300028577906  -1.577555788316503 1.215180484183664 0  -1.466118612717564 1.06068664004738 0.1854634457573004  -1.417954567522155 0.9826958282046394 0  -1.687765770332819 1.064693265863353 0  -1.776037932920274 0.899547665238146 0  -1.538403791801157 0.8564673244602555 0.1943213337786517  -0.08003934538014729 1.295501408685772 0.6971819095783099  0.04160764913545779 0.9959020042462563 0.6951876610204599  -0.1158014551741539 0.9885945521690958 0.5360510107907983  0.07039621903639844 1.193189424248325 0.4925197764598668  -0.9912607890003962 0.0887306983322423 0.7688596154928593  -1.157675661796024 0.2874316557483794 0.8237284357888865  -1.193677763294787 0.02935523231729001 0.812175874957884  -0.9819498088636408 0.1832666661363625 1  0.410518663746953 1.145132281820996 0.1739528830163619  0.7253839885668945 1.031099139266958 0  0.5426779840473307 1.206243742029588 0  0.6297047863728796 1.149324118574361 0.3176746376671157  -1.370317109984933 0.6068829405856371 1  -0.3365162964824625 0.9378841800729312 0.2405432884014713  -0.4415185705098927 1.234655578466227 0.3250771953421422  -0.5209854872342006 1.060897459510266 0.207962911636449  -0.3313057231869522 0.9394647902018173 0.5  -1.374007622100844 0.09777626041767989 0.7163944533892758  -1.497526988319634 0.06223231979832809 1  -1.257318893890059 0.113297357199552 1  1.249304098544304 0.9818639786871559 0.6226004215358898  1.094501835405095 0.9069959230168483 0.7911110155726667  1.309593523734593 0.7964501727899614 0.7808372169612792  1.20556721898046 1.585445191179384 0.4476684804600739  1.091862571121528 1.371305525622352 0.2344987357957295  1.00357872437095 1.423058332434916 0.5177435908903606  -1.426410269324307 -0.2746123173713337 1  -1.500573791635198 -0.1343119170450844 0.7793914918465166  -1.628642811205088 -0.2280282795420948 1  -1.553893487133441 0.2026855142925206 0.8123817161664363  -1.724055721366079 0.08454345261679307 1  -1.730806770054562 0.2680869584325063 1  -1.738241993048834 -0.1668323661063556 0.5052707113179995  -1.678786771260193 0.05495038097256552 0.6892783914122976  -1.475115822476183 -0.1061604368231795 0.5102968426790093  -1.65956562518322 0.6779485992594181 0.1896533736052345  -1.720532437548271 0.4373519509618823 0.1754478773861343  -1.709763549103771 0.6410356720050135 0.4332539624816215  -1.885130003936691 0.6421713892771141 0.270111656601095  -1.636071442661823 -0.3475227057135603 0.6780535416162582  -1.770439526340713 -0.3857097409097593 0.4625341959737544  -1.944522349779485 -0.4463810640409471 0.5920894244586623  -1.974189182631205 -0.2620616265888291 0.7298883433989083  0.1491014704226533 1.206091432684536 0.1645315316658615  -0.1324954485561265 1.170160433752792 0.1730870475574952  -0.1167133356171148 1.304836660355007 0.3171019939379283  0.05531881852987598 1.314100493560312 0  -1.264272254491768 1.537267213620411 0.5235172542791873  -1.237771957270619 1.559015445500463 0.7085720153548473  -1.382377160656424 1.440341022038268 0.687926620973708  -1.192571215110794 1.302722308512609 0.4782864723562278  0.6960222699964466 1.295807126413262 0.5330849355015431  0.8083390270524147 1.571591874322219 0.472239330174774  0.5517231384485761 1.454403164442377 0.4298188378448305  0.7915237499511695 1.458085557217198 0.6786322054571055  -0.9290527823196455 0.3656295132424565 0  -1.190015801986949 0.4859549610262058 0.2855300420029705  -1.154952165344322 0.2392481477379702 0.1941991349140578  -0.9566144206959937 0.2747709680011161 0.2420850819122637  1.357588177110721 0.6051791325630997 0.4890122966951662  1.240163171506982 0.8056445430899435 0.4703265802928889  1.151085225078327 0.5687533494461764 0.2783924227271701  1.028457323040231 0.6449199764202236 0.4738119802244047  -0.9917877951958876 -0.08337991463409308 0.3014470703819548  -1.203640036831656 -0.08325252803474509 0.4828454397889581  -0.9711427085821456 -0.226877621308203 0.5  -0.9912607890003962 0.0887306983322422 0.5  -1.200554184744864 0.1951582901488528 0.5722415843174004  -0.9566144206959937 0.2747709680011161 0.7579149180877363  -0.8092614669963184 1.031632698922229 0.6791456875279881  -0.747028838074304 0.9125730243322504 0.8266226570201092  -0.984599909939442 1.149923132667671 0.7848661116286425  -0.9141816130997213 0.7634549129288799 0.8251041360935342  -0.867837335236696 0.8425368172721063 0.5309559614124686  -0.6564424890631831 0.7486858911845402 0.7578281535473971  -0.631840153311841 0.7688765063405124 0.5362539270910898  0.7150729101162372 0.6974000250004323 0.2407973732256986  0.7277563338502576 0.9325702370966827 0.1974234667644578  0.6474105652419927 0.7560981995049714 0  0.5740716115140515 0.8162859233710571 0.3048877041465921  0.8970303684702503 1.066138203770662 0.2442796007958575  0.9002133998610917 1.17533804169472 0.5123000448132571  0.6975758679023071 0.962264812445522 0.4999493235888443  0.8232270239921954 0.8366784538598585 0.3712692579210483  -0.688391004567446 1.30457807950404 0.2279694399321673  -0.632518690427178 1.508037302070591 0  -0.5246326138228607 1.437575172319297 0.1874291779963437  0.3749437861923043 1.759916422654703 0.1643598384089756  0.4181796157261225 1.953077165598711 0  0.2329436680789495 1.977057051227739 0  0.3259282302928117 1.967898871204744 0.2701428045681138  -1.820860037820459 0.0940778455954159 0.8249209159235769  -1.740429359649223 -0.4716914031645397 0.8098827929228846  -1.675175657750933 -0.6607398531446582 0.8269759785572082  -1.863047176396528 -0.7149687156812052 1  -1.892475081514288 -0.6179579134933961 0.6823257906480289  -1.694030268265159 0.2521086332974301 0  -1.9123088686015 0.5525746798567135 0  -1.963291281964382 0.3727098689263164 0  -1.162812384258729 0.869959537678654 0.1967137241630482  -1.098472765100997 1.059915202872253 0.2606957431243106  -1.34993589569112 0.9730419110075272 0.3324974874943423  -0.786137885070551 0.6108071024727797 0.5  -1.027957718484444 0.807486031122658 0.3458033622348064  -1.052829203020905 0.5589047274949172 0.5085767754743842  -1.156663002991701 0.588550599634463 0  -1.391582474002526 0.487267687798005 0.2096997911392877  -1.351229656953599 0.5151732646136987 0  -0.03280364265358246 1.831764972791291 0.1909259915725535  0.1793593889274742 1.763015629161613 0.1712485623520171  0.04658873361578186 1.995411410245548 0  0.1342877826595882 1.986773807832135 0.2409428933173995  -0.1988450770295621 1.980415469312695 0.4765700177088378  -0.401475179542921 1.958144400916416 0.5014873400227502  -0.374651815137472 1.717339434420175 0.6085609355383461  -0.2079297969927716 1.979520702494411 0.6817345837013904  0.737989278808085 0.9484405353945584 0.8032480055582302  0.409052571906391 0.9097849337810207 0.7575866569922562  0.5740716115140516 0.8162859233710571 0.6951122958534079  0.4927023055088699 0.8650732196511788 1  -0.8818497861445191 -0.4613155571981953 0.5  -1.150536973579396 -0.480913571459282 0.4660449197857321  -0.9563006605232179 -0.2758052966743181 0.7404721885678482  -0.7757759682718035 1.842195283264311 0.2279005027763657  -0.7757759682718033 1.842195283264311 0.409013949502827  -0.502990862578652 0.859573871324515 0.3047494630173089  1.318945904687044 1.211757931086913 0.1685462058045276  1.396119646174049 1.429062855640683 0  1.323743981377897 1.48846002871101 0.3033542810346415  -1.971763274727665 -0.286692282878117 0.4416850368765731  -1.989110983577033 -0.1105580390958591 0.2754498220525415  -1.761579966123775 -0.2663709394208962 0.2302127468000587  -1.93944788191584 -0.4631093427328397 0.312468973614769  -1.7586360996564 -0.1593651247605219 0.7674836060750635  0.5381140213278526 1.390649914862936 0  0.6935573934875271 1.489966702901899 0  0.6178842866238763 1.653744004512532 0  0.6728588884486792 1.610917347527578 0.2548265037722429  0.8885834835094115 1.181931362434751 0.7862592131011225  0.6369413111082657 1.134962770928983 0.6982435355650809  -0.5790841934569149 1.560047235753897 0.6688754989314865  -0.4936253294979922 1.718220497575566 0.7876615208084401  -0.3283769853446082 1.144478249162979 0.8173417573936155  -0.3313057231869523 0.9394647902018
[...]
<PointData  Vectors="f_10-0"> 
<DataArray  type="Float64"  Name="f_10-0"  NumberOfComponents="3" format="ascii">-1.7081043944272404e-02 1.7535683208317280e-02 2.6434633033251423e-03  -1.6109846364522843e-02 2.0512098145356667e-02 1.7444359434606812e-03  -1.4968831791364247e-02 1.8224217523597121e-02 2.6396042176679685e-03  -1.4248219236511721e-02 1.8205091882925004e-02 1.6525974311529690e-03  -2.4411065427146651e-02 7.2091452797518312e-03 -1.3119527364784187e-03  -2.2771774426972518e-02 1.2318677102864540e-02 -1.1326481855894759e-03  -2.6660365333986816e-02 9.1376708106025353e-03 -7.4871461076087898e-04  -2.2248937139409519e-02 9.0481851295159677e-03 -7.8673859294381269e-04  -1.1037179266564617e-02 2.0618382768017890e-02 1.6683841088761143e-03  -1.1347841448627331e-02 1.9006910948247659e-02 2.5939978892003260e-03  -1.2179200108351792e-02 1.8463006860233631e-02 1.2662213497151948e-03  2.6770449535393474e-02 2.1754764247491370e-02 -6.8746728707209600e-04  2.3633700221917870e-02 1.5110045328581760e-02 -9.2726309473934246e-04  2.0034545184862911e-02 1.9758972060170313e-02 -5.3246860916522827e-04  2.4996236649842046e-02 1.6845012719212245e-02 -1.7633605726791813e-03  1.1722064134161507e-02 1.9837104026962239e-02 1.6732093938455624e-03  1.2868644281527959e-02 1.7860877190875861e-02 1.3087646903349240e-03  1.1952758566685975e-02 1.8447468128996617e-02 2.4810362810252298e-03  1.1133047446620935e-02 1.9035828392334961e-02 1.1599224890942411e-03  2.9103242360859757e-02 9.4879736471605129e-03 -1.5217196961366261e-03  2.6607761366373484e-02 1.1074475943889243e-02 -2.5822362688523591e-03  3.2953718873133475e-02 1.0118777938695553e-02 -2.5080333984938120e-03  2.7191599064379159e-02 5.6280095492930024e-03 -2.5633581184888407e-03  -9.1677203638444796e-03 2.2337969072853719e-02 9.8151361237324981e-04  -6.7788351266225583e-03 2.1130592592326466e-02 1.0049211952623952e-03  -6.7465037827335386e-03 2.2338319211604854e-02 3.6182146428761401e-04  -8.6962590407874980e-03 2.1504256806306545e-02 1.7323265869627171e-03  5.6412163089733739e-03 2.5337134675553534e-02 9.7260350362203592e-06  6.6364178877986015e-03 2.2502138186137687e-02 5.1483084636000961e-04  3.9628095261414597e-03 2.3102262832892771e-02 6.4687827733983934e-05  5.1675787943312292e-03 2.3773770649680739e-02 -7.8317794144984736e-04  -1.7130335304637201e-02 1.6019192288035257e-02 1.6493756276438551e-03  -1.6712055680872216e-02 1.4488262497683532e-02 1.0471319732883622e-03  -1.7415320181595684e-02 1.3589122453679072e-02 2.6514724992615850e-03  -1.8651065691414042e-02 1.3695374924842957e-02 1.7195631482575314e-03  -1.9405741168120549e-02 1.3641681906851603e-02 2.6588801206986193e-03  -1.8563501316881989e-02 1.1908451454455843e-02 2.6384165892751458e-03  -1.9612852906777486e-02 1.0126767244806399e-02 2.6829706867054909e-03  -2.0404691550136769e-02 1.1579942891564346e-02 1.6908100696391855e-03  -1.8420985504703803e-03 2.8480212822291275e-02 -9.4786642819933830e-04  1.3559344777761941e-03 3.4674182715432628e-02 -1.0040521538725905e-03  -3.9505479882839967e-03 3.4489100501176040e-02 -1.3010125237381144e-04  1.6627000610477823e-03 3.0307138388890667e-02 7.9371597075618761e-05  -3.4267167378098221e-02 3.4007081399637634e-03 -1.4296846031098482e-03  -2.9135983336431769e-02 7.5118376361489490e-03 -1.5654308906817415e-03  -2.9947685932810587e-02 1.0007044620369721e-03 -1.5236098030357744e-03  -3.3612474681185785e-02 6.6044603816917541e-03 -2.5973992816542384e-03  9.8315634125882897e-03 2.8137121201289153e-02 1.7265388550572552e-03  1.6436187706597577e-02 2.3834651801101621e-02 2.5827161052581812e-03  1.1261009378889103e-02 2.5689274393903144e-02 2.5779652773326818e-03  1.3341760129681159e-02 2.4880880776620731e-02 9.6357601594475306e-04  -2.3414800417717149e-02 1.0634789035675262e-02 -2.3829281345659971e-03  -1.1661211128970641e-02 3.2684624818445189e-02 1.5259579297850086e-03  -9.5102373854828847e-03 2.6653647216179407e-02 9.9414641502516463e-04  -1.3423382870219960e-02 2.7366619050434724e-02 1.6089458557980948e-03  -1.1601717700161173e-02 3.2625349042775691e-02 8.8768466388069442e-05  -2.7042988432661456e-02 2.1797603017242339e-03 -9.4898977007349663e-04  -2.5548343298048812e-02 1.3082404392067888e-03 -2.3856108821269247e-03  -2.8612604570508501e-02 2.8263852295989582e-03 -2.4448447175270814e-03  1.9302424557174527e-02 1.5503958722345050e-02 -6.3849340346566329e-04  2.0305142151966472e-02 1.7155534551675348e-02 -1.4877907163558962e-03  2.1451238349543305e-02 1.3335578449426875e-02 -1.4475130277756636e-03  1.3158521005782152e-02 1.7661722689256219e-02 2.5095768166717063e-04  1.4405087274603594e-02 1.8507416619272330e-02 1.3358084378619231e-03  1.3404801359078769e-02 1.9399087473959603e-02 -8.7134057357917010e-05  -2.5588931490799213e-02 -4.7102126334842755e-03 -2.4155926334105612e-03  -2.5433289183636326e-02 -2.0114119947047902e-03 -1.2460249041430645e-03  -2.3889006806838371e-02 -3.1215044397637092e-03 -2.3688022343009859e-03  -2.4687179508497158e-02 3.4680489330338833e-03 -1.4116777832560473e-03  -2.3464721070547485e-02 1.3853442390684191e-03 -2.3373404295546048e-03  -2.3057032242626747e-02 3.8052131433253525e-03 -2.3421747549314514e-03  -2.3291774516285238e-02 -1.9796146709506403e-03 1.3699159472197072e-04  -2.3906238718194264e-02 1.0339820448786727e-03 -7.8212230091718375e-04  -2.5799183032177733e-02 -1.5801573129054303e-03 8.7443865934575885e-05  -2.1408904298924492e-02 8.9697731889259100e-03 1.7230413072686201e-03  -2.2528932111038950e-02 5.9728364353411056e-03 1.7951672221299512e-03  -2.1437672595568225e-02 8.2696839232950219e-03 5.0495240651080410e-04  -2.0784832254367020e-02 7.3174708179754456e-03 1.3301383220913840e-03  -2.3431824430182258e-02 -4.7392932670266572e-03 -7.4234187520364706e-04  -2.2401966316466876e-02 -4.6330898300363330e-03 3.3656017195707772e-04  -2.1309857621715899e-02 -4.6515680544191940e-03 -2.9154338083249077e-04  -2.1680917675284950e-02 -2.6564855401736203e-03 -9.7263017872287628e-04  3.5088754384600125e-03 2.9676176245967266e-02 1.7919891120150139e-03  -3.4940658405040403e-03 3.0394651949622258e-02 1.7612918847500255e-03  -2.6047933756064442e-03 2.8241601419334704e-02 9.9849661398760921e-04  1.0533654789257666e-03 2.8209860410584882e-02 2.5905249468732988e-03  -1.3970748728179209e-02 1.7191554785977087e-02 8.4228994855082562e-06  -1.3669417303387069e-02 1.7412933786002890e-02 -9.1493222168419577e-04  -1.5198336033374445e-02 1.6046047302977862e-02 -7.9115652392329364e-04  -1.5768173415366526e-02 1.7415351869067931e-02 2.4439818071641590e-04  1.2196475182079143e-02 2.3128978313585263e-02 -1.4319106269534458e-04  1.0533909924601348e-02 2.0937069694198691e-02 1.6046416282628585e-04  8.7660947275969153e-03 2.3700663875304659e-02 3.9495011817636516e-04  1.1394643537110571e-02 2.1428517940772340e-02 -8.8299409065929616e-04  -3.1912191049385877e-02 1.2796299337086365e-02 2.8797739727541610e-03  -2.6379305084115685e-02 1.1025560284560991e-02 1.2275735207362001e-03  -2.9707165803696506e-02 6.4107678971349006e-03 1.7559755062611139e-03  -3.3177102331253747e-02 9.5738720472306280e-03 1.6030693697948249e-03  2.3364135239547949e-02 1.0722127099519028e-02 2.3420386052542001e-05  2.1529433385941585e-02 1.4302589161185231e-02 1.2556861850441788e-04  2.5350911399118090e-02 1.2856100291811940e-02 1.1119729667336369e-03  2.4954383197772208e-02 1.5974862750543686e-02 1.3285342771335827e-04  -3.4297798442956953e-02 -2.3699476648600423e-03 1.2382617971704024e-03  -2.9800000512038457e-02 -1.7661604481764650e-03 2.2979286147684823e-04  -3.3490921946091795e-02 -7.4329399898965228e-03 9.4800217642480576e-05  -3.4286649897068783e-02 3.3413973362659941e-03 1.2834461348409443e-04  -2.9264461383703727e-02 5.0345650681150184e-03 -2.4490588054845329e-04  -3.3126155238223549e-02 9.8159164280470900e-03 -1.3652198584254089e-03  -1.7367614021707251e-02 2.2328420097303028e-02 -8.1393119320929204e-04  -1.9224646996992181e-02 2.3693585325060502e-02 -1.5930604602308457e-03  -1.6616104035756866e-02 1.9592278759730991e-02 -1.3131842274096894e-03  -2.3087822955052156e-02 1.9562929136630981e-02 -1.6014797920952944e-03  -2.1378693721233348e-02 2.0959887630129286e-02 -3.4754448870576714e-05  -2.2700012144006024e-02 2.6161997106954177e-02 -1.3343801752521613e-03  -2.1817049504954358e-02 2.6923329034048812e-02 -1.1703992232857213e-04  2.4411071804980096e-02 2.4241012705223840e-02 1.3927490095267119e-03  1.8456081053313700e-02 2.4075891569390752e-02 1.5709694687377873e-03  2.2165200558362172e-02 2.6446334281917193e-02 2.6261296282392953e-03  1.9570199161818083e-02 2.8478303782167126e-02 1.0450483528020524e-03  1.7146422538364854e-02 2.0833323937062467e-02 1.3201933390555251e-03  1.5590996434465376e-02 2.0754405292419294e-02 -5.0681114416598955e-05  1.7574223007894810e-02 2.4708331198881189e-02 1.9743026951770362e-05  2.1110923527775050e-02 2.1913321353288835e-02 6.8606348450688090e-04  -1.2190751045003115e-02 2.3150712740725162e-02 1.4808541205398595e-03  -9.4893293546937374e-03 2.2635677682275240e-02 2.6053619129218614e-03  -8.7659089409175966e-03 2.4001256951743991e-02 1.6715152806392449e-03  4.6850995876592015e-03 2.2789109460539785e-02 1.7378449529018699e-03  4.4663650948551922e-03 2.1661594872736320e-02 2.5379607936776788e-03  2.4352545108593305e-03 2.2041823181383320e-02 2.5795395091834350e-03  3.4667366664522226e-03 2.1870909088390515e-02 1.1972741719246979e-03  -2.2806141641826965e-02 1.4188654987578975e-03 -1.4537778540152785e-03  -2.2144073447608156e-02 -5.7789381919606435e-03 -1.4010161704060328e-03  -2.1351077859952911e-02 -8.1817025177299760e-03 -1.5108343652298860e-03  -2.0343304609310740e-02 -7.5960924520483255e-03 -2.3469672067512929e-03  -2.0775260765655244e-02 -6.5592282424252225e-03 -7.6878248056014937e-04  -2.3442409737783974e-02 3.7385148655681745e-03 2.6827773709250371e-03  -2.1117563379885504e-02 6.3268281495271099e-03 2.7045891355529715e-03  -2.1531535403719243e-02 4.3255661372574644e-03 2.6643865704911712e-03  -2.1010140126849017e-02 1.5903379161896825e-02 1.6801471390769844e-03  -1.8293007070470206e-02 1.7824691676543020e-02 1.3263852936720726e-03  -1.9554229438967567e-02 1.4311738645714587e-02 9.8146827434870748e-04  -2.7236299563454049e-02 2.1277184297117623e-02 1.2958440718109608e-04  -2.2146607869413176e-02 1.7619302260043230e-02 9.1236520727749958e-04  -2.6631980927347733e-02 1.4397979627432774e-02 7.3041258909769581e-05  -2.5162787722242893e-02 1.3026466784798379e-02 2.7076697239987709e-03  -2.4509026466287283e-02 8.8215352876311621e-03 1.6210652970685979e-03  -2.4557139284672892e-02 9.5996113767714327e-03 2.6772020714045403e-03  -5.2643890213688554e-04 2.3071368760663982e-02 1.6221213694892981e-03  2.2372352898901576e-03 2.3367525716668405e-02 1.7055103411456063e-03  3.8951840430048441e-04 2.2138296146174696e-02 2.5469711231555590e-03  1.3508561702543667e-03 2.2132144705678484e-02 1.3608578476540041e-03  -2.3040362620973501e-03 2.2073249673608981e-02 1.8902676928018739e-04  -4.4986142490822624e-03 2.1704392110107149e-02 7.3322615014990934e-05  -5.0589418656941778e-03 2.3040786992781160e-02 -4.6168120150250601e-04  -2.3848452057933377e-03 2.2066906239165442e-02 -8.3120502345451926e-04  1.8219578907339960e-02 2.3839023938194807e-02 -1.5286679391707349e-03  1.3972772741153151e-02 3.1702598697895171e-02 -1.3706351344908840e-03  1.9645329496735343e-02 2.8469345723709322e-02 -9.7893405751317227e-04  1.6942217210677249e-02 3.0174974228637456e-02 -2.4325222271324070e-03  -3.0487114395667470e-02 -1.5666987328826883e-02 1.0844407294060987e-04  -2.6826248711374921e-02 -1.0946202359909145e-02 2.7014188302628556e-04  -3.3020228938713793e-02 -9.2993951272311460e-03 -1.2879781969941620e-03  -8.5837041148212716e-03 2.0401012019244824e-02 1.4559453370008397e-03  -8.5936807371917601e-03 2.0410727803937986e-02 5.4633667508107581e-04  -1.7443784757042249e-02 2.9980910660521037e-02 1.1761530853857248e-03  1.6840839020043439e-02 1.5836355130824500e-02 1.6444056628607678e-03  1.5127277750774193e-02 1.5849793125042453e-02 2.4612914446675602e-03  1.4447547840763653e-02 1.6577911277301148e-02 9.7476453292357304e-04  -2.1667945826098621e-02 -2.9119072575444177e-03 4.4971534120508746e-04  -2.1888045506770152e-02 -9.2571678377863838e-04 1.2987050733119295e-03  -2.2888967764500130e-02 -3.1942554432690938e-03 1.5052638670956862e-03  -2.1279073488939860e-02 -4.8571062625287773e-03 1.0890978920631174e-03  -2.3129913621568673e-02 -1.8586688134900511e-03 -1.1794009869722953e-03  9.1385259523652663e-03 2.4251882261140278e-02 2.5693721499132011e-03  1.0086853726460785e-02 2.2220046755235406e-02 2.5411492768458747e-03  7.9986917464676330e-03 2.2053733635714532e-02 2.5462787965249713e-03  8.9022768489597625e-03 2.1861325386539884e-02 1.2671867999303683e-03  1.5422084861277368e-02 2.0899732581934991e-02 -1.4408476840188885e-03  1.3667910791585702e-02 2.4873750338954250e-02 -1.0016093205676225e-03  -8.4315810693829166e-03 2.2798125383521915e-02 -7.5656390474806978e-04  -6.4606777983630083e-03 2.2470721491598799e-02 -1.3552453415225302e-03  -8.3441418087540475e-03 2.9162990643670610e-02 -1.5701778842133831e-03  -1.1472463113304493e-02 3.2720848290497130e-02 -1.3708796851533761e-03  -6.4032806638202643e-03 2.9316133928290845e-02 1.9606128579326552e-04  -5.1154881151710060e-03 3.4315113355108222e-02 -1.3371040500201525e-03  1.0139623440416055e-03 2.4123576896904357e-02 -1.4453232526284133e-03  1.5407665106443628e-03 2.2108327314273219e-02 -8.5981634760474285e-04  6.2856174445537498e-04 2.2142253445134732e-02 -2.4363324529568199e-03  2.6830552845378153e-03 2.2006678404341107e-02 -2.4591929299279192e-03  -1.9365935789746540e-02 1.8028628637238156e-02 2.6846057473762872e-03  1.4005204282550559e-03 2.3707351203903763e-02 -3.3870477175896799e-04  -1.0810777359894861e-03 2.3247995418835276e-02 -1.5740202496405458e-03  1.7547111197115006e-02 1.3132433550296087e-02 -3.2510202066122720e-04  1.6026178459062502e-02 1.5007004803224646e-02 -1.1782900259337304e-03  1.7294974411999182e-02 1.5487270840570265e-02 -9.9050054758839439e-04  1.7388604070677667e-02 1.3351402729927700e-02 -1.3295885678849880e-03  1.5014839146384820e-02 1.9992792601172798e-02 8.7698325252612394e-04  1.2267540892017330e-02 2.0904380750059480e-02 1.0497069602386669e-03  -2.2275654336368474e-02 1.4034914721793466e-02 -2.3835577511023358e-03  -1.9862947693543818e-02 1.4167610625857927e-02 -2.3673212433228288e-03  -2.0115062007963289e-02 1.1990864934462721e-02 -2.3509329852111805e-03  -7.6761793771905973e-03 2.0788939659433861e-02 2.5907166443033397e-03  4.9175401157001732e-03 2.9486319074150998e-02 -1.5736947073151171e-03  2.5819917168365914e-03 2.6005618418140912e-02 -1.3303816474864402e-03  1.1310936140666015e-03 2.8955444907113815e-02 -2.4752645669631089e-03  6.2992250537479916e-03 2.7235822774291537e-02 -2.4906483497974599e-03  -2.7900331086162251e-02 -1.0514089098633762e-02 -1.4580726417173608e-03  -2.8627288598740874e-02 -5.3579848901260671e-03 -1.6304227477981577e-03  -2.7261926198816108e-02 -8.3940290767796164e-03 -2.4785309207240210e-03  -3.3574056328628872e-02 -6.3881631750997417e-03 -2.6990292225225324e-03  -4.2043181706629155e-04 2.2162803770537854e-02 -3.8733389989781719e-04  -4.0234288973629964e-04 2.2150949045688369e-02 -1.2898197859201300e-03  2.2043324300195340e-02 7.0422912286050507e-03 5.7900505460609622e-07  2.0934915124289039e-02 6.0882155885222311e-03 -1.8778603487577819e-04  2.0292881731872065e-02 8.0312502848008029e-03 -1.2081803061041807e-03  2.0946440968346244e-02 6.0927367376509252e-03 -1.1330546923952484e-03  -2.4969301599195616e-02 2.3765533536107379e-02 -2.5714480502162596e-03  -2.2226753022530847e-02 1.7552226995086333e-02 -2.4505625547671904e-03  -2.8934488287300837e-02 1.8640201291098678e-02 -2.5415580363878964e-03  -2.7436511652346524e-02 -5.9763269015848663e-03 1.0611300531026913e-03  -2.4858126639718123e-02 -3.6230221183109782e-03 1.5418271860077833e-03  -2.6618273561918798e-02 -2.9011137993761399e-04 1.4492778116265170e-03  2.2351533383676330e-02 6.3352337890685909e-03 -2.5654088799854143e-03  2.2254662953304347e-02 5.1129618533719261e-03 -1.5098087598267754e-03  2.0657834226143229e-02 7.0921501008808351e-03 -2.5788843857386043e-03  2.1187924866025415e-02 5.0898841696635005e-03 -2.5604313791577037e-03  -3.5971204231805775e-03 3.0468758308578803e-02 -1.6208803729562886e-03  -4.2141928136532718e-03 2.8126226095018456e-02 -2.4598038194277349e-03  -1.9034895794758509e-03 3.4589747028627146e-02 -2.5034673011328215e-03  -2.3259212297857761e-02 -1.0174496803638071e-03 -2.3521599390657700e-03  1.9674855182053259e-02 1.1869464500350783e-02 1.5434205379578436e-03  1.9344390319993326e-02 1.0173975335337773e-02 8.6103727172579610e-04  1.8858160616138916e-02 1.1012042508549208e-02 2.4593378590861631e-03  1.8345069197039838e-02 1.1886732941878928e-02 1.3154038751147408e-03  2.6851949799291643e-02 6.6332917703820111e-03 8.2542637715405016e-04  2.4627184322145116e-02 5.2084187701123517e-03 2.4033379805846631e-04  2.4289414047454765e-02 2.8824218871832648e-03 1.2657111683135856e-03  2.2990857365737895e-02 6.9014754644954046e-03 9.7878474531878901e-04  -3.0699324759071469e-02 1.5913842055723864e-02 -9.4605715320403272e-04  -3.2754633800271722e-02 1.0962810631284672e-02 -8.7900255976650787e-05  -2.3465327499258233e-02 -6.0813901694202373e-03 8.5090975133958360e-04  -2.4987929491409603e-02 -7.7474041630351733e-03 2.5421876556162756e-04  -2.4417561865480893e-02 5.2565335771106291e-03 -2.4121455068563301e-04  3.3597475473795720e-02 6.7520919893386717e-03 -1.3572443369904495e-03  2.9135991404326458e-02 3.5573403832396340e-03 -1.5864497824458147e-03  3.4267797956964600e-02 3.7650882853619942e-03 -2.5281468730753570e-03  2.2291643655647973e-02 1.4192906716674818e-02 1.5083632289553798e-03  1.9687176939898125e-02 1.2873860474837694e-02 2.4809549456151639e-03  2.0045876090152726e-02 1.3196831316255285e-02 8.1891702944207514e-04  -2.6332931996721673e-03 2.2036067461056290e-02 1.3757496442624612e-03  -3.5276645229051396e-03 2.3147768627142420e-02 5.4781661439818274e-04  -4.7114511959503794e-03 2.1655336131039253e-02 1.2219890348303401e-03  -2.2859625673270077e-02 4.7872560970472142e-03 -1.1117878201902358e-03  -2.2195621327090697e-02 6.6207878971584738e-03 -2.4213412601148659e-04  -2.1636148517982710e-02 3.6516705858862771e-03 -4.8626731587303484e-04  -2.1221070029872540e-02 5.6959286140820225e-03 -9.2892061339086779e-04  1.7875190046024614e-02 1.6792770510571785e-02 -1.6193302311128877e-03  1.5823188160652528e-02 1.7927556875368369e-02 -1.0061606233146773e-03  1.5289647062661518e-02 1.7073466812887319e-02 -1.6753882180249239e-03  2.3205596091023406e-02 1.5408472724806848e-02 -2.5804085284788936e-03  -3.1146503452558110e-04 2.5903391455056553e-02 -2.4612060168476796e-03  -8.4516666674865609e-03 2.6803585022278094e-02 -7.1987421344377081e-04  -1.3601885355829804e-02 2.6210794472572619e-02 -1.2529059487340251e-03  -9.3105479837472666e-03 2.4377711877597057e-02 -1.3545970713917986e-03  -1.2690432587209302e-02 2.2724727538721817e-02 -1.3173981419235450e-03  2.2594082996636119e-02 1.0935937960815710e-02 1.3448339458870691e-03  6.4858073186313493e-03 2.8329585811468893e-02 2.5886839565177852e-03  6.2162077174579954e-03 2.8097990893079912e-02 9.4634831624799672e-04  1.5978786303127501e-02 2.3075918033303940e-02 -2.5488052128788633e-03  1.0874258172165729e-02 2.3462072594120715e-02 -2.5165605565053337e-03  1.2272336923589583e-02 2.2871639101345941e-02 -1.5371701663915186e-03  1.1716255260252556e-02 2.6557537896837426e-02 -2.5072949174389345e-03  -1.7216043675257676e-02 2.2544748819766206e-02 1.0591150359764193e-03  -1.2529700320473227e-02 2.2963092444886795e-02 9.9274732914732876e-05  -1.5923612961326147e-02 2.0724737489265690e-02 2.2950714673387076e-04  -1.4865021465110956e-02 2.6398614534060255e-02 8.3907383244603609e-05  -2.3047380045339242e-02 1.2081054578007946e-02 1.9084160357610999e-04  -2.6269160945278855e-02 1.3872104672701132e-02 -1.2520758050083957e-03  -2.2645253525194586e-02 1.6813289809372151e-02 -7.3452251983024258e-04  -3.0128231522240749e-02 1