<?xml version="1.0"?>
<VTKFile type="UnstructuredGrid"  version="0.1"  >
<UnstructuredGrid>
<Piece  NumberOfPoints="180" NumberOfCells="626">
<Points>
<DataArray  type="Float64"  NumberOfComponents="3"  format="ascii">-1.412883232192979 -0.498916897224404 0  -1.595864871923849 -0.7076981334402126 0  -1.424974064043019 -0.8180641451546321 0  -1.496133812848886 -0.6224620133938269 0.168029496722675  -1.073831515515874 -1.381296027576066 0.4703149899896178  -1.222912435612129 -1.211258208550986 0.5924324065281698  -0.9969898328475651 -1.363191667272982 0.7007929224873214  -0.9602840871252403 -1.119883154337391 0.5000000000000003  -1.512011392687988 -0.7917510345546442 0.2966161284015407  -1.82007427255317 -0.8171614684481319 0.2701477341636163  -1.623972487846827 -0.7834420794628646 0.5282118138501414  -1.683847711978677 -0.6637140041757016 0.3554943844166969  -1.34376490772025 -0.6629168230233793 0.5232079866624604  -1.540227286709983 -0.7594309578000181 0.7158969883666931  -1.486680182709609 -0.9357655947055598 0.5005733069352488  -1.325812149253608 -0.9556560748352179 0.692162030564986  -1.334552913091629 -1.215813856519444 0.3976467594449599  -1.415326496627902 -1.118270480731319 0.5860770877722016  -1.289838922750997 -0.9992737188619498 0.3584443832289749  -1.016378813307524 -1.085925806803902 0.7785250480141073  -1.319832932085968 -1.220158808863818 0.797553015984893  -1.04215606515532 -1.265258740361177 1  -1.224143446475008 -1.257655592102634 1  -0.4088784021612257 -0.9098780294493575 0  -0.5229419073512893 -1.071131864134972 0.1858598554011229  -0.2291981602613921 -0.9704387807865139 0  -0.3199640933144202 -0.9429052360103518 0.2421718464526027  -0.8300753132502592 -1.509513793106689 1  -0.9480652577231136 -1.538949907681568 0.8061489537317872  -1.038889265765676 -1.701558295737102 1  -0.9927400037819177 -1.469592821760114 1  -1.828344611031377 -0.8016887534344467 0.501479594258776  -1.736582952516703 -0.973362741762956 0.6816999714220926  -1.828344611031377 -0.801688753434447 0.7315233149267526  -1.311232433775281 -0.5655346387499858 0.2575624298059242  -1.115114617145163 -0.4774046250283511 0.183365501259989  -1.155897705984207 -0.6056548263397348 0  -1.025812920413763 -0.6511834817819452 0.1439798677502316  -1.029314058751751 -1.277283305743657 0  -1.178992651785597 -1.60725437485166 0  -0.814899804420075 -1.518363461454386 0  -1.064430939898313 -1.438297828212334 0.1876351619911193  -1.100293793730394 -1.440233234786469 0.8308817755846929  -1.409648970501671 -1.417959626110762 0.7315592004692577  -1.259072795543131 -1.541534299303341 0.681542773860404  -1.337314418527182 -1.477323058760319 1  -1.252030506876232 -1.547313756251158 0.4762918344255788  -1.409648970501671 -1.417959626110762 0.5014885213334912  -0.4956491309591998 -1.563380666785781 0  -0.6869697439873288 -1.871540571604282 0  -0.7580030332512193 -1.620602597475575 0.200800306043187  -1.14427663396646 -0.9784691238319053 0.5430642805458707  -1.149350747726731 -1.254278997813574 0.2766244916622759  -1.460269210528559 -0.997142497751212 1  -1.536047625067858 -0.9519929514599034 0.8052694561656402  -1.588692758267181 -1.201610047034396 1  -1.696041285575386 -1.049210865804753 1  -0.9276927122636932 -1.18966297302634 0.2221042075729678  -0.8872796870605097 -1.4002985370975 0.3147842555428691  -1.288568259440269 -0.805512686298428 0.2258674758772604  -1.225520025366661 -0.794093745484538 0  -0.8818497861445191 -0.4613155571981952 0.7311394935597686  -0.8370702135273155 -0.5450922451011507 1  -1.027492750785988 -0.6524847028891798 0.8199378413995048  -0.7786461866372218 -0.6199357634264332 0.8011130297803182  -1.575027654417853 -0.4272778672614745 0.3583387676772505  -0.8639445355284535 -0.8583291060170649 0.8054362079504707  -0.6681267201658774 -1.099552128393463 0.6661740090429282  -0.6715769074605573 -0.9935685522856664 0.8357754955456658  -1.4222824581895 -1.084590503732421 0.1953208450696405  -1.63681176493991 -1.142976867755885 0.3120733790262914  -1.539885573357767 -1.261081773920541 0.4764827457208107  -1.647982157896459 -1.129365704556127 0.5912151627944675  -1.432341127333238 -0.8020961674110092 1  -1.285361083627857 -0.7056318215590633 0.7820307561532949  -1.395988323856173 -1.429170629081726 0.2701485651502452  -1.229384016800246 -0.8172292866491174 0.4411307233346597  -1.562107303025337 -0.8714576333881834 1  -0.6473028356127737 -0.7561866109268153 0.3046988722058142  -0.6622625981428886 -0.9674380054790881 0.1667270624174167  -0.4925509432611309 -0.8651541244581579 0.2340519535717435  -0.5864317813477913 -1.00499243216721 0.3747039238690006  -0.8561474899215658 -1.001364049625688 1  -0.8234030488632201 -1.227864263700687 0.7971660546693747  -0.6240956319681428 -1.097419055583654 1  -1.895141120398549 -0.6091691611241368 0.4773268319077155  -0.7019581915565072 -1.428580415300582 0.6030955109277132  -0.7677466476962631 -1.430304235837895 0.8149664493944945  -1.732293608121397 -0.981387540699419 0.4766342653695815  -1.136023885573776 -0.9739462810986533 0  -1.312143823607195 -1.118484178884738 0  -1.214077727804358 -1.08067869725745 0.1803917315920848  -0.2895078849523348 -0.9521440258122447 0.5362539270910905  -0.4925509432611309 -0.8651541244581579 0.5  -0.8003104928752021 -0.9034212800942407 0.5276102543982508  -1.031197119573864 -0.7966433949198815 0.6423524737321922  -0.9903393271760718 -0.7893858577995121 0  -1.041556514867787 -0.9879428034616119 0.2526681143367585  -1.521721023277034 -1.283215342234634 0.2410338395570504  -0.865384944162939 -0.8553394389184948 0.1720783019779129  -0.7184124931061813 -0.6933307313531918 0  -0.8515368795528185 -0.9959513296075999 0  -1.247013422168451 -1.551431171262626 0.2410943834276965  -1.105932760739789 -1.665722801080378 0.3119391242858136  -0.945887529797514 -1.75126875927484 0.2410674713138804  -1.581662913688258 -0.9018160801693318 0.1602142017296592  -1.687422812760598 -0.5289845451979994 0.1787939533334902  -1.912308868601495 -0.5525746798567313 0  -1.857951139271877 -0.7317680986975303 0  -1.886844210104414 -0.636520408863094 0.2410868471557569  -0.7773345907527112 -1.628786731198925 0.6526384974201469  -0.9654368394123369 -1.740819435585567 0.4637035560543035  -0.9481983015956591 -1.526869931125131 0.5686233152649492  -0.9632662672522199 -1.741979630576535 0.6815427738604043  -0.87374366514047 -1.789830458324557 1  -1.729293316485563 -0.9870006915470573 0.2409605973021356  -1.687765770332812 -1.064693265863366 0  -0.8551724930659974 -1.190489734935458 0  -0.7071448212676967 -1.316768067261704 0  -0.6247867466263319 -1.098639338212029 0  -0.7238313813679086 -1.185068705398414 0.1631518420404129  -1.023406865707063 -1.709833810979676 0  -0.9897573047550841 -0.8823754244453341 0.4310666916709433  -0.7588352083306384 -0.6440755103383521 0.4625780124890055  -0.7757759682717937 -1.842195283264316 0.4985126599772499  -0.7840616717201718 -1.583902828399041 0.4377923672640045  -1.322923833929898 -1.104620792539591 1  -0.7219618228038823 -1.307247678942268 1  -0.6473028356127738 -0.7561866109268152 0.6953011277941858  -0.7184124931061813 -0.6933307313531918 1  -1.534091637551517 -1.268141705127494 0.6816999714220948  -1.469898412126526 -1.346361376626702 1  -1.155280858039766 -0.8775855316856152 0.8000382702498052  -1.93944788191584 -0.4631093427328397 0.312468973614769  -1.136279175487017 -1.379948082139655 1  -1.192563088934876 -1.596117404900973 1  -1.389282245793132 -0.390104725039531 0.1762849063852214  -0.9735201934283557 -0.6570251083210682 0.4872795627034311  -0.7820125957907885 -0.6158337820042405 0.6573822497979197  -1.150536973579396 -0.480913571459282 0.4660449197857321  -0.8818497861445193 -0.4613155571981951 0.2688605064402313  -1.086061906529874 -0.729431175999589 0.3171054587016006  -1.146386478336709 -0.9597403290152839 1  -1.161618529882714 -0.6086679473328844 1  -0.7760330678762961 -1.024059073548987 0.2866398217060592  -0.573938299464078 -0.8163953297430323 1  -0.7625848589994415 -1.249272832911995 0.4545509433042903  -1.577555788316494 -1.215180484183675 0  -1.329969763722953 -1.258164074353386 0.1990057211837501  -1.45876144217584 -1.359931813775981 0  -0.9888459432127936 -0.7881904763484712 1  -0.4925834195271322 -1.072587773108498 0.7942257610232533  -0.8370702135273155 -0.5450922451011507 0  -0.7758641285073432 -0.623325711066081 0.2407365067161483  -0.8582612650818566 -1.798105973567131 0  -0.775775968271794 -1.842195283264316 0.2684499835474483  -1.120264121600167 -1.655451633991383 0.5909860504971736  -1.120264121600167 -1.655451633991383 0.7720994972236346  -0.573938299464078 -0.8163953297430323 0  -1.78431344816284 -0.8840652651795469 1  -0.4088784021612257 -0.9098780294493575 1  -0.4973685655474065 -0.8625790516973388 0.7595504241117759  -1.323743981377903 -1.488460028711005 0  -0.4224459877560165 -1.246963081678484 0  -0.5391031786369436 -1.386651023185445 0  -0.670056525276606 -1.377886873936386 0.2250212001955873  -1.963291281964381 -0.3727098689263351 0  -1.64798215789646 -1.129365704556126 0.7721847800497199  -1.209935812895535 -0.3819042831015633 0  -0.8818497861445191 -0.4613155571981953 0.5  -0.9482005564984586 -0.3025077610903928 0.2301063922394252  -1.776037932920266 -0.89954766523816 0  -1.650217386037167 -0.3811273884986385 0  -1.146979132093379 -0.6111977257244187 0.6415714464460128  -0.5521062382202796 -1.211666613348794 0.3442023460192692  -0.4792183519131534 -1.094876157717112 0.5312084515566817  -0.3199640933144202 -0.9429052360103518 0.7578281535473974  -0.9256039491140714 -0.3769987926575506 0  -0.7107840783041939 -0.9868412936944161 0  -0.7913424350245954 -1.833874833437536 0.7298481380810278  </DataArray>
</Points>
<Cells>
[...]
<PointData  Vectors="f_10-0"> 
<DataArray  type="Float64"  Name="f_10-0"  NumberOfComponents="3" format="ascii">-1.2232689389490329e-02 -6.8257378244009938e-03 3.4521162518419451e-04  -1.1766636555611273e-02 -7.4066839379071754e-03 6.0142348823148336e-04  -1.3306532565731451e-02 -9.5420791428521001e-03 1.6922916620195263e-04  -1.1825834860530906e-02 -7.4687456975977441e-03 2.7350496990596076e-04  -1.1963411017054379e-02 -1.1411944568277129e-02 3.7492808722307728e-05  -1.3126548797750198e-02 -1.1534875416952290e-02 3.2055634821871493e-05  -1.1824538264713779e-02 -1.1482490944460173e-02 -1.0183509974934898e-05  -1.3371444565464371e-02 -1.2334510807495057e-02 3.0106359620858899e-05  -1.2343852487863136e-02 -8.5894770440624098e-03 1.8779034376040628e-04  -1.0895602925763038e-02 -6.2143017754053400e-03 4.7396106790337526e-04  -1.1613226876381137e-02 -7.6364305290179072e-03 3.2077618146815897e-05  -1.0617742270594680e-02 -6.2686714245305192e-03 2.5842701538198294e-04  -1.3055659479627309e-02 -8.9734774859459628e-03 6.0538995209107820e-05  -1.2047051596138303e-02 -8.1691684241333214e-03 -9.7440770141793846e-05  -1.2837888678497564e-02 -9.5636663480805715e-03 5.1691782427344157e-05  -1.3514161875132184e-02 -1.0717081303964269e-02 1.1250340704226356e-04  -1.3112456697322705e-02 -1.1167728485051666e-02 9.7094234000760692e-05  -1.3161614888607776e-02 -1.0653467125708032e-02 -6.2696236901369104e-06  -1.3583313313778498e-02 -1.1028384259467911e-02 2.8915269774391537e-06  -1.3739684081503624e-02 -1.2391884567071503e-02 4.1236490303169540e-04  -1.3210131221211105e-02 -1.1346108661524187e-02 -1.1537419099027580e-04  -1.2873733195689838e-02 -1.2223552171139572e-02 1.5268430238692322e-04  -1.3281473442542100e-02 -1.1923149081368364e-02 -1.4192388124396527e-04  -1.1444454032008677e-02 -1.7513038919265752e-02 -8.6327426328987095e-04  -1.1520385304466526e-02 -1.3655828633858480e-02 -3.4774364682532054e-04  -6.5749997206192290e-03 -1.7278243654765501e-02 1.7913135664908078e-04  -9.3589837445175097e-03 -1.7086821674727821e-02 -9.3597313850523849e-05  -9.8091668035873904e-03 -1.0742312715188201e-02 -4.8952813900248610e-04  -1.0282015979772898e-02 -1.0724840882132930e-02 -3.0682937915267161e-04  -9.5560481809141892e-03 -1.0686651278570328e-02 -9.2658691099514095e-04  -1.1179339549195543e-02 -1.1462578691120004e-02 -3.7674378739298439e-04  -1.0673177785763330e-02 -5.9932246942580444e-03 6.7012768974319037e-05  -1.2030300555559231e-02 -7.9478608652780707e-03 -2.3769802170610160e-04  -1.0731994975850111e-02 -6.0107916862906213e-03 -3.4274458945763556e-04  -1.3173262156053136e-02 -8.4265855091075273e-03 9.9338273837223696e-06  -1.5313769295414914e-02 -9.4020970868913187e-03 -3.1430994439680607e-04  -1.5138467734630194e-02 -1.0201337138857866e-02 -6.0620599292052549e-04  -1.5928291564521482e-02 -1.1847485275588007e-02 -7.8381948066655826e-04  -1.2783932285217637e-02 -1.2184037003116091e-02 -2.4905997631390258e-05  -1.1078847181087393e-02 -1.1348754740504022e-02 8.5766185857442403e-04  -9.6536704906157352e-03 -1.0609342217736980e-02 5.3894874948202714e-04  -1.1635332928381762e-02 -1.1351837805767390e-02 2.4682941607871142e-04  -1.1766363609248728e-02 -1.1422734994309246e-02 -2.3238421901112909e-04  -1.2569093263409723e-02 -1.1163760941902919e-02 -3.0627929903275229e-04  -1.1621575684130582e-02 -1.1244209164867831e-02 -2.2688811979054279e-04  -1.2470170717514502e-02 -1.1637417665383280e-02 -7.3953821450730784e-04  -1.1521154550292201e-02 -1.1163472626776407e-02 6.0788317801170432e-05  -1.2510829927620079e-02 -1.1086672980456508e-02 3.4309069738194338e-05  -6.3092441740251774e-03 -8.5532199452738270e-03 8.9532473168235508e-04  -5.4490498457677138e-03 -7.7832973293912276e-03 1.1010486495917982e-03  -8.3140598505522714e-03 -9.4405740186426050e-03 4.4787185013310711e-04  -1.3994763479689285e-02 -1.1758992566089430e-02 9.2522834711079925e-05  -1.2927133937548673e-02 -1.1704468648174841e-02 3.0006783487582440e-05  -1.3451986583170889e-02 -1.0294868757699225e-02 -2.5182797169128569e-04  -1.2785100627840081e-02 -9.3895068124206782e-03 -2.1094682048501502e-04  -1.3297763062884023e-02 -1.0307387319981211e-02 -7.4649397381416156e-04  -1.2782375320261649e-02 -8.8806964524212103e-03 -8.4186171256386063e-04  -1.2888076355066908e-02 -1.2213940325374435e-02 -2.3437747662080123e-04  -1.1024678460198157e-02 -1.1136807063277939e-02 7.6768186233901179e-05  -1.3734827386857964e-02 -1.0371302160428843e-02 -1.3464740914686092e-04  -1.4504068601130087e-02 -1.0915451083482776e-02 -4.6447006078627421e-04  -1.8971170492240921e-02 -1.1490417859756810e-02 6.4234953904303521e-04  -1.9110433896091707e-02 -1.3318601740855708e-02 1.7308035351383565e-03  -1.5842235895670041e-02 -1.1851978361155589e-02 7.9222316384423830e-04  -1.8303077656268565e-02 -1.4464045253654120e-02 1.1735107791482080e-03  -9.9987558869674802e-03 -4.8798514741854471e-03 2.5768014837193750e-04  -1.5399639730855640e-02 -1.3676517553131009e-02 9.3004260940988352e-04  -1.2391925762693268e-02 -1.3090335768542913e-02 2.7872582507795774e-04  -1.3679189941734215e-02 -1.4063281475856752e-02 8.0697907720873635e-04  -1.3298879533329059e-02 -1.0610863558624083e-02 2.1722521204710132e-04  -1.2792127773368507e-02 -9.5032495072002957e-03 3.4072445307900090e-04  -1.2910055258605594e-02 -1.0400158360021051e-02 8.3239990014862889e-05  -1.2689497564385473e-02 -9.3394124572605888e-03 -9.7603763281826125e-05  -1.3206264435231150e-02 -9.4112393055963590e-03 -4.0545333660990275e-05  -1.3673624885099742e-02 -9.8228442094371073e-03 2.3961143728612615e-04  -1.2508740875478111e-02 -1.1174995160993828e-02 3.6308325969197798e-04  -1.3984337950648967e-02 -1.0786698160348799e-02 -1.3520904789896142e-05  -1.2704858765038986e-02 -8.8707363604664559e-03 -4.3972109554398680e-04  -1.6472005677368083e-02 -1.6013271528010926e-02 -6.5296887256315929e-04  -1.3938577289456281e-02 -1.4283188209786427e-02 -7.7470503434839315e-04  -1.3462069997521545e-02 -1.7009221623563154e-02 -6.2623671200738519e-04  -1.2851437199664747e-02 -1.4108600937713645e-02 -2.0424855223489941e-04  -1.4386501351763045e-02 -1.3619359119047240e-02 1.1082003718334234e-03  -1.2126467621533512e-02 -1.2106520272787174e-02 2.5540859043770756e-04  -1.2098227451373648e-02 -1.3601965305410954e-02 6.8926532250801107e-04  -8.9307438693757638e-03 -3.9407209620445005e-03 1.1847872591179287e-04  -9.5138306881906026e-03 -1.0385558147082174e-02 -4.6231605665279524e-05  -1.0036188857071028e-02 -1.0723505846511654e-02 -1.4764449312871920e-04  -1.2033919462398356e-02 -7.9957051303495008e-03 9.8879851357874809e-05  -1.4489584544047061e-02 -1.2152109924002209e-02 -5.5352245459392162e-04  -1.3772364510038146e-02 -1.1487054587271240e-02 1.6802588766019351e-04  -1.3689926742835140e-02 -1.1625040858611966e-02 -1.0598946491330370e-04  -8.3350156318092710e-03 -1.7025818821530710e-02 -3.5761856901799523e-06  -1.3423867533583926e-02 -1.6807178933196408e-02 4.1434811614842374e-05  -1.4901848672964317e-02 -1.3806868929178840e-02 1.1398959858259061e-04  -1.5137985899176863e-02 -1.2240685469684329e-02 3.5658096167013307e-04  -1.5809970187728211e-02 -1.2826680251590079e-02 -1.1898145566292555e-03  -1.4250492717578889e-02 -1.2347302904700846e-02 -3.6553619529587639e-04  -1.2983242959271132e-02 -1.0612274800765696e-02 4.2779765380905062e-04  -1.5435957130300828e-02 -1.3666175372492552e-02 -9.1015743156277931e-04  -1.7816977780774051e-02 -1.5844940217669433e-02 -1.9386314678716027e-03  -1.4457998037211983e-02 -1.3599781866997316e-02 -1.0832932795010715e-03  -1.1540536812612278e-02 -1.1239970579770608e-02 4.1509524718463125e-04  -1.0101390563609312e-02 -1.0675927072005402e-02 3.2788289168416578e-04  -8.4861322640636064e-03 -9.7843925742566937e-03 5.0419032960996330e-04  -1.2494687112852601e-02 -8.7905217323780774e-03 4.1127897281769440e-04  -9.7954048032724995e-03 -5.0848493864292634e-03 5.0661036521915343e-04  -8.6370817437439983e-03 -3.3745349627610256e-03 9.1092778126180814e-04  -1.0339069330848639e-02 -5.2326403929721897e-03 9.9122165268573795e-04  -9.2492467245377571e-03 -4.2291446275362935e-03 5.3505593232181772e-04  -8.3617414762461630e-03 -9.4318475928104068e-03 -2.1155357516201452e-04  -8.6556970551057884e-03 -9.8186142204183292e-03 8.0666890583684886e-05  -1.0335802326739044e-02 -1.0652566598494805e-02 -4.8547805736090276e-05  -8.6531478892188755e-03 -9.8525750370837602e-03 -3.1744578635653042e-04  -7.6532783561095944e-03 -9.5208456744629005e-03 -1.0189515132702158e-03  -1.2150395470175945e-02 -8.0934768399194990e-03 4.8395621963272364e-04  -1.2900225512402257e-02 -9.0068546671293274e-03 8.9185599274318767e-04  -1.2728942523207221e-02 -1.2662617306527962e-02 -4.2696076356262208e-04  -1.0585860594436180e-02 -1.1651289932198876e-02 1.4484698583379777e-05  -1.2099867399628816e-02 -1.3595993375471398e-02 -6.2831189913190781e-04  -1.1973733096508557e-02 -1.2393408895247204e-02 -3.0629935180678390e-04  -9.4171521255316786e-03 -1.0574039892641022e-02 9.3235868189770908e-04  -1.4857490587420278e-02 -1.2634840490955476e-02 -1.0638186125947050e-04  -1.7755934101816445e-02 -1.4686582376473805e-02 -8.5164554603318660e-05  -6.4267209401295908e-03 -8.2869758199815794e-03 1.7150182888839676e-05  -8.8131335981908431e-03 -9.6986728596528717e-03 9.5320810871137151e-05  -1.3752396186631839e-02 -1.1425166792581905e-02 -3.8890097479528446e-05  -1.0749121730820922e-02 -1.1806582151115585e-02 3.9901442655585753e-05  -1.6400050230726593e-02 -1.6129824608540334e-02 7.3506900748592928e-04  -1.7791514995490067e-02 -1.5870459079398259e-02 2.0252443033153648e-03  -1.2944166900234576e-02 -1.0493814238441522e-02 -2.1486939147996646e-04  -1.3158350433933430e-02 -1.1244489611416676e-02 -7.4822565207442238e-04  -1.4374404151180362e-02 -1.1645965132783829e-02 4.7024738748816219e-04  -7.6983963613720917e-03 -2.5804750656287230e-03 4.0225281499114236e-04  -1.2424742607173569e-02 -1.1869720747979122e-02 -3.0157649683498712e-04  -1.1199960848001069e-02 -1.1436687826402966e-02 -8.1436519171863831e-04  -1.1797750653341857e-02 -5.8465390376629574e-03 3.3779484362908487e-04  -1.6091699419946891e-02 -1.2273170756519139e-02 1.6428133338598920e-05  -1.8101196131380483e-02 -1.4260812675369388e-02 6.2954986869812198e-04  -1.4752225562312642e-02 -9.0240575651913957e-03 3.1337807637247439e-05  -1.8936765948534565e-02 -1.1543707074708339e-02 -5.3922140072311170e-04  -1.5066073078340797e-02 -1.1573059784897168e-02 -3.1187760963132790e-04  -1.4486704504840844e-02 -1.2110900381627866e-02 6.1245708109438333e-04  -1.5074230047851156e-02 -1.0215024332336708e-02 6.9035710163588943e-04  -1.3773939014531712e-02 -1.3337303534863350e-02 -4.2003004611154552e-04  -1.5272848351881084e-02 -1.7137301325112979e-02 1.7282290960258756e-03  -1.1553440516989893e-02 -1.1817764483882633e-02 -1.3200536382716027e-07  -1.3321815569374968e-02 -1.0378949957973938e-02 8.3959951660309733e-04  -1.3099343014040957e-02 -1.1314071664705239e-02 2.5614452714821286e-04  -1.3128554723560336e-02 -1.1259936996532077e-02 8.1859001835642750e-04  -1.5811120780484168e-02 -1.2879468959348698e-02 1.3009268342040919e-03  -1.1144495385887201e-02 -1.3683129786026706e-02 3.0725980933669862e-04  -1.9134774077817492e-02 -1.3251077766469688e-02 -1.6227555328399632e-03  -1.8207405079179284e-02 -1.4471694679387553e-02 -9.1187598587791558e-04  -7.4738276660355667e-03 -9.3352778709562146e-03 1.0613617976688902e-03  -6.4345436074753019e-03 -8.3444179866741398e-03 4.9782322707992940e-04  -1.0212341500196020e-02 -1.0701771321291647e-02 -1.2336634063017147e-04  -1.0256659196209498e-02 -1.0793726260258008e-02 -4.3941904143479952e-04  -1.5319567359720308e-02 -1.7098533262658866e-02 -1.6410648087954525e-03  -1.1747660745855067e-02 -7.1064708934323907e-03 -8.5608633724819350e-04  -1.1401902104529191e-02 -1.7579067582210579e-02 8.7590479300809316e-04  -1.3581517836209924e-02 -1.6972256608137358e-02 6.7359871465154961e-04  -1.2413294450405345e-02 -1.1634146771447558e-02 7.8844654939392450e-04  -8.0746737681622049e-03 -1.1683609441502204e-02 3.5990931042606647e-04  -8.2458399777142460e-03 -1.0451615630880198e-02 4.9068964047368135e-04  -9.7140047194841737e-03 -1.0709221260491418e-02 1.3620910778385203e-04  -7.1693871235356055e-03 -1.8276286877572324e-03 8.3727812599566020e-04  -1.2783544984748284e-02 -9.4185161904804145e-03 -3.9163608481565759e-04  -1.4306036955229888e-02 -7.0667491253429398e-03 6.0318922856962785e-05  -1.8868649106793443e-02 -1.1364099639018454e-02 6.1645629251047329e-05  -1.9135354723378423e-02 -7.8092403848167161e-03 -1.9927829099986992e-04  -1.1876589930723951e-02 -7.2616562336616283e-03 9.8471848353051585e-04  -9.2837740949740961e-03 -3.8457275143861866e-03 8.3137120979804614e-04  -1.4804699868596559e-02 -1.0252741233462596e-02 2.5743714462874833e-04  -1.0152545580074569e-02 -1.1952255689493341e-02 -3.9453616534516016e-05  -1.0659084377904164e-02 -1.3315632909067935e-02 4.3407581565118680e-05  -9.2709766266374141e-03 -1.7123733251739104e-02 1.3842136866004979e-04  -1.9423784267796181e-02 -9.6004726704328174e-03 -8.7926618408203636e-04  -1.3996880438084811e-02 -1.4293330288565317e-02 -1.1456438419433278e-03  -6.6216354382287214e-03 -8.4879324410388687e-03 -4.7628384325415572e-04  </DataArray> 
</PointData> 
</Piece>
</UnstructuredGrid>
</VTKFile>