<?xml version="1.0"?>
<VTKFile type="UnstructuredGrid"  version="0.1"  >
<UnstructuredGrid>
<Piece  NumberOfPoints="663" NumberOfCells="2682">
<Points>
<DataArray  type="Float64"  NumberOfComponents="3"  format="ascii">-1.146527028962373 1.167114312334814 0  -0.9184143406250429 1.15951227012599 0.181890248271007  -1.117408632183515 1.349324948359656 0  -1.127667895979856 1.429138092744414 0.1957268739948787  -1.462744779920422 0.4173062759430208 0.7927788025429325  -1.315004706961013 0.6972167789990056 0.7557377227898123  -1.24261630433174 0.4137133052539228 0.6762314288941822  -1.564690195006766 0.6196325639107423 0.6892222911693506  -0.843554369120634 1.571972381406213 0.1893355977975628  -1.023406865707073 1.709833810979671 0  -1.105932760739799 1.665722801080373 0.2684407995307424  0.7774620075900223 0.6213786897703732 0.6301803247013167  1.111892032715658 0.6950153870911676 0.6782986928341398  0.9398731368034582 0.9099149963248007 0.6065948067581353  0.9918676312209388 0.6543886671119523 0.8433271873984621  0.941138706865577 1.555920911307085 0.1704413559358486  1.182595711909019 1.604297419826286 0.2395450545717993  1.105979666019659 1.665697729685953 0  1.023406865707056 1.70983381097968 0.2701021146961656  1.103193596384578 0.3504086635323349 0.7926247744809052  1.167609977272698 0.4754420500101144 1  0.9531946147586513 0.2860445573368379 1  1.298466289634289 0.2582810036338386 1  -0.6404454764412717 1.557452185064736 0.3229483011552194  -0.6049140089552396 1.896431906697228 0.3184572261395962  -0.5174396855537765 1.720603924206695 0.4455678853971146  -0.6789195424108355 1.679413385346867 0.172716471184192  0.3335227193744119 1.455823083785915 0.5059548517043282  0.5147335164951123 1.695375458309009 0.4045574146742378  0.3114922696473099 1.749879024378842 0.4952208711948659  0.362054055747579 1.621275077683425 0.6647683656809289  -1.297015254039048 1.200330857140984 0.198215552709849  -1.513321347298536 1.293450377028231 0.318300028577906  -1.577555788316503 1.215180484183664 0  -1.466118612717564 1.06068664004738 0.1854634457573004  -1.417954567522155 0.9826958282046394 0  -1.687765770332819 1.064693265863353 0  -1.776037932920274 0.899547665238146 0  -1.538403791801157 0.8564673244602555 0.1943213337786517  -0.08003934538014729 1.295501408685772 0.6971819095783099  0.04160764913545779 0.9959020042462563 0.6951876610204599  -0.1158014551741539 0.9885945521690958 0.5360510107907983  0.07039621903639844 1.193189424248325 0.4925197764598668  -0.9912607890003962 0.0887306983322423 0.7688596154928593  -1.157675661796024 0.2874316557483794 0.8237284357888865  -1.193677763294787 0.02935523231729001 0.812175874957884  -0.9819498088636408 0.1832666661363625 1  0.410518663746953 1.145132281820996 0.1739528830163619  0.7253839885668945 1.031099139266958 0  0.5426779840473307 1.206243742029588 0  0.6297047863728796 1.149324118574361 0.3176746376671157  -1.370317109984933 0.6068829405856371 1  -0.3365162964824625 0.9378841800729312 0.2405432884014713  -0.4415185705098927 1.234655578466227 0.3250771953421422  -0.5209854872342006 1.060897459510266 0.207962911636449  -0.3313057231869522 0.9394647902018173 0.5  -1.374007622100844 0.09777626041767989 0.7163944533892758  -1.497526988319634 0.06223231979832809 1  -1.257318893890059 0.113297357199552 1  1.249304098544304 0.9818639786871559 0.6226004215358898  1.094501835405095 0.9069959230168483 0.7911110155726667  1.309593523734593 0.7964501727899614 0.7808372169612792  1.20556721898046 1.585445191179384 0.4476684804600739  1.091862571121528 1.371305525622352 0.2344987357957295  1.00357872437095 1.423058332434916 0.5177435908903606  -1.426410269324307 -0.2746123173713337 1  -1.500573791635198 -0.1343119170450844 0.7793914918465166  -1.628642811205088 -0.2280282795420948 1  -1.553893487133441 0.2026855142925206 0.8123817161664363  -1.724055721366079 0.08454345261679307 1  -1.730806770054562 0.2680869584325063 1  -1.738241993048834 -0.1668323661063556 0.5052707113179995  -1.678786771260193 0.05495038097256552 0.6892783914122976  -1.475115822476183 -0.1061604368231795 0.5102968426790093  -1.65956562518322 0.6779485992594181 0.1896533736052345  -1.720532437548271 0.4373519509618823 0.1754478773861343  -1.709763549103771 0.6410356720050135 0.4332539624816215  -1.885130003936691 0.6421713892771141 0.270111656601095  -1.636071442661823 -0.3475227057135603 0.6780535416162582  -1.770439526340713 -0.3857097409097593 0.4625341959737544  -1.944522349779485 -0.4463810640409471 0.5920894244586623  -1.974189182631205 -0.2620616265888291 0.7298883433989083  0.1491014704226533 1.206091432684536 0.1645315316658615  -0.1324954485561265 1.170160433752792 0.1730870475574952  -0.1167133356171148 1.304836660355007 0.3171019939379283  0.05531881852987598 1.314100493560312 0  -1.264272254491768 1.537267213620411 0.5235172542791873  -1.237771957270619 1.559015445500463 0.7085720153548473  -1.382377160656424 1.440341022038268 0.687926620973708  -1.192571215110794 1.302722308512609 0.4782864723562278  0.6960222699964466 1.295807126413262 0.5330849355015431  0.8083390270524147 1.571591874322219 0.472239330174774  0.5517231384485761 1.454403164442377 0.4298188378448305  0.7915237499511695 1.458085557217198 0.6786322054571055  -0.9290527823196455 0.3656295132424565 0  -1.190015801986949 0.4859549610262058 0.2855300420029705  -1.154952165344322 0.2392481477379702 0.1941991349140578  -0.9566144206959937 0.2747709680011161 0.2420850819122637  1.357588177110721 0.6051791325630997 0.4890122966951662  1.240163171506982 0.8056445430899435 0.4703265802928889  1.151085225078327 0.5687533494461764 0.2783924227271701  1.028457323040231 0.6449199764202236 0.4738119802244047  -0.9917877951958876 -0.08337991463409308 0.3014470703819548  -1.203640036831656 -0.08325252803474509 0.4828454397889581  -0.9711427085821456 -0.226877621308203 0.5  -0.9912607890003962 0.0887306983322422 0.5  -1.200554184744864 0.1951582901488528 0.5722415843174004  -0.9566144206959937 0.2747709680011161 0.7579149180877363  -0.8092614669963184 1.031632698922229 0.6791456875279881  -0.747028838074304 0.9125730243322504 0.8266226570201092  -0.984599909939442 1.149923132667671 0.7848661116286425  -0.9141816130997213 0.7634549129288799 0.8251041360935342  -0.867837335236696 0.8425368172721063 0.5309559614124686  -0.6564424890631831 0.7486858911845402 0.7578281535473971  -0.631840153311841 0.7688765063405124 0.5362539270910898  0.7150729101162372 0.6974000250004323 0.2407973732256986  0.7277563338502576 0.9325702370966827 0.1974234667644578  0.6474105652419927 0.7560981995049714 0  0.5740716115140515 0.8162859233710571 0.3048877041465921  0.8970303684702503 1.066138203770662 0.2442796007958575  0.9002133998610917 1.17533804169472 0.5123000448132571  0.6975758679023071 0.962264812445522 0.4999493235888443  0.8232270239921954 0.8366784538598585 0.3712692579210483  -0.688391004567446 1.30457807950404 0.2279694399321673  -0.632518690427178 1.508037302070591 0  -0.5246326138228607 1.437575172319297 0.1874291779963437  0.3749437861923043 1.759916422654703 0.1643598384089756  0.4181796157261225 1.953077165598711 0  0.2329436680789495 1.977057051227739 0  0.3259282302928117 1.967898871204744 0.2701428045681138  -1.820860037820459 0.0940778455954159 0.8249209159235769  -1.740429359649223 -0.4716914031645397 0.8098827929228846  -1.675175657750933 -0.6607398531446582 0.8269759785572082  -1.863047176396528 -0.7149687156812052 1  -1.892475081514288 -0.6179579134933961 0.6823257906480289  -1.694030268265159 0.2521086332974301 0  -1.9123088686015 0.5525746798567135 0  -1.963291281964382 0.3727098689263164 0  -1.162812384258729 0.869959537678654 0.1967137241630482  -1.098472765100997 1.059915202872253 0.2606957431243106  -1.34993589569112 0.9730419110075272 0.3324974874943423  -0.786137885070551 0.6108071024727797 0.5  -1.027957718484444 0.807486031122658 0.3458033622348064  -1.052829203020905 0.5589047274949172 0.5085767754743842  -1.156663002991701 0.588550599634463 0  -1.391582474002526 0.487267687798005 0.2096997911392877  -1.351229656953599 0.5151732646136987 0  -0.03280364265358246 1.831764972791291 0.1909259915725535  0.1793593889274742 1.763015629161613 0.1712485623520171  0.04658873361578186 1.995411410245548 0  0.1342877826595882 1.986773807832135 0.2409428933173995  -0.1988450770295621 1.980415469312695 0.4765700177088378  -0.401475179542921 1.958144400916416 0.5014873400227502  -0.374651815137472 1.717339434420175 0.6085609355383461  -0.2079297969927716 1.979520702494411 0.6817345837013904  0.737989278808085 0.9484405353945584 0.8032480055582302  0.409052571906391 0.9097849337810207 0.7575866569922562  0.5740716115140516 0.8162859233710571 0.6951122958534079  0.4927023055088699 0.8650732196511788 1  -0.8818497861445191 -0.4613155571981953 0.5  -1.150536973579396 -0.480913571459282 0.4660449197857321  -0.9563006605232179 -0.2758052966743181 0.7404721885678482  -0.7757759682718035 1.842195283264311 0.2279005027763657  -0.7757759682718033 1.842195283264311 0.409013949502827  -0.502990862578652 0.859573871324515 0.3047494630173089  1.318945904687044 1.211757931086913 0.1685462058045276  1.396119646174049 1.429062855640683 0  1.323743981377897 1.48846002871101 0.3033542810346415  -1.971763274727665 -0.286692282878117 0.4416850368765731  -1.989110983577033 -0.1105580390958591 0.2754498220525415  -1.761579966123775 -0.2663709394208962 0.2302127468000587  -1.93944788191584 -0.4631093427328397 0.312468973614769  -1.7586360996564 -0.1593651247605219 0.7674836060750635  0.5381140213278526 1.390649914862936 0  0.6935573934875271 1.489966702901899 0  0.6178842866238763 1.653744004512532 0  0.6728588884486792 1.610917347527578 0.2548265037722429  0.8885834835094115 1.181931362434751 0.7862592131011225  0.6369413111082657 1.134962770928983 0.6982435355650809  -0.5790841934569149 1.560047235753897 0.6688754989314865  -0.4936253294979922 1.718220497575566 0.7876615208084401  -0.3283769853446082 1.144478249162979 0.8173417573936155  -0.3313057231869523 0.9394647902018
[...]
<PointData  Vectors="f_10-0"> 
<DataArray  type="Float64"  Name="f_10-0"  NumberOfComponents="3" format="ascii">-1.3672473698621169e-02 1.2455363342870136e-02 -1.2212409757188299e-04  -1.3114827101185058e-02 1.2693669161305056e-02 -2.8374782588484905e-04  -1.2619242076497218e-02 1.2233753613089249e-02 2.8444964343678512e-04  -1.1957315793896495e-02 1.1720799093152604e-02 3.0863570171424718e-04  -1.1095709090402467e-02 5.9139113359086325e-03 -2.1950330505979089e-04  -1.3444496902751504e-02 9.8148688231327382e-03 2.0085505973279559e-04  -1.3585784059136161e-02 7.6520328972385088e-03 8.2159681716216312e-05  -1.1219605655293716e-02 7.1520212213057894e-03 -8.1864961143559735e-05  -9.4061700660873666e-03 1.0447292705053519e-02 4.3693289888992458e-04  -9.4543807572956620e-03 1.0881446237796103e-02 1.0214029033868296e-03  -1.0144469495710568e-02 1.0999672708965928e-02 4.5913097985924488e-04  1.7942561970545137e-02 1.4532877797797808e-02 5.3512041722485258e-04  1.4849910230247437e-02 1.1460995720055926e-02 3.2150073585643905e-04  1.4632903851984794e-02 1.3196339814861837e-02 2.6700522799004650e-04  1.6058933011770540e-02 1.2590136665241222e-02 9.3823492729090555e-04  9.9839609613834122e-03 1.0951388721337198e-02 4.0496231746123355e-04  1.0797997059766759e-02 1.1376309974199403e-02 4.4623717812737032e-04  1.0115013015145473e-02 1.1357256360669475e-02 9.3896187918985719e-04  9.1509322513306235e-03 1.0575997619873231e-02 4.3610845896504440e-04  1.5554126952599426e-02 8.0174886368909390e-03 2.2494379840914518e-04  1.4952946126588743e-02 9.1002558174238159e-03 4.0228769428157888e-04  1.9460227641128917e-02 7.7597128749102070e-03 8.5279325478192171e-04  1.2702170614332348e-02 4.8106789675215261e-03 -5.7021234725785643e-04  -7.8967782326122473e-03 9.4618647150349310e-03 2.8907797743026612e-04  -4.6583113027980827e-03 7.1204461852673864e-03 4.6853337179666798e-04  -5.4302847652566866e-03 7.5259978371325763e-03 1.5802121827782303e-04  -7.2109490441560429e-03 8.9488080968911816e-03 6.2126244397388947e-04  5.1285560740397321e-03 8.8082625461615785e-03 1.1935477144725289e-06  5.4063073928170904e-03 7.6956778609145789e-03 2.1144497757685622e-04  3.0126304801351366e-03 6.0220333105410299e-03 3.1822460904649808e-05  4.3579056795228820e-03 7.3743783050773080e-03 -3.4668651372800888e-04  -1.3296178529973996e-02 1.1673164718109015e-02 1.7771101324358805e-04  -1.2965460573568368e-02 1.0931113704013199e-02 3.3631733075613362e-04  -1.3354251555319963e-02 1.0686818628718051e-02 9.1611498361135978e-04  -1.3218076457694785e-02 1.0589679572943661e-02 2.9949797859178180e-04  -1.3624467630870775e-02 1.0764940906349409e-02 2.4594556697713854e-04  -1.2915780254539874e-02 9.3043052205163228e-03 9.7963472312497901e-04  -1.1933106685329157e-02 7.5747019675394909e-03 1.0539868330817633e-03  -1.2525641683783374e-02 9.1310528900999336e-03 3.1530787101211158e-04  -1.7907795823420894e-03 1.0318466192756594e-02 -5.2720469653698486e-04  1.1552347865307661e-03 1.6926801915565740e-02 -3.2817556634522668e-04  -3.4731345000302578e-03 1.7002747916287454e-02 -2.4398407048062441e-05  1.6206799490264814e-03 1.2238308282399567e-02 2.9631479573928182e-05  -1.8713682993339149e-02 2.5894067345720037e-03 -1.4906795733982750e-05  -1.4809061236269509e-02 6.4968061997558993e-03 1.2994363534019359e-05  -1.4000351494279705e-02 8.3124545040539862e-04 -3.2368766849999480e-04  -1.9175466857335538e-02 5.0466179854028988e-03 2.4846580986935009e-04  9.0071647470286367e-03 1.3114354367210685e-02 4.7771911443032837e-05  1.3492965423810163e-02 1.4265324044438752e-02 -1.0337880096091077e-03  9.9303749140185783e-03 1.2747118846674394e-02 -8.8405833543386513e-05  1.1421018062352396e-02 1.2928678708700767e-02 -1.6315003750899692e-04  -1.3111244145203019e-02 8.6449557568184041e-03 2.8457931672745082e-05  -9.7323031555925574e-03 1.7386245327524329e-02 -1.4590712089031734e-04  -8.6582163018252330e-03 1.1806813802968410e-02 1.3795304715313449e-04  -1.1669502750984172e-02 1.4026221972942760e-02 -3.2361164777705456e-04  -9.5979246169970705e-03 1.7239171855175733e-02 4.3628441730805691e-05  -1.0940118578712224e-02 1.8420335927548906e-03 -3.3256842574401984e-04  -9.5416301728322959e-03 9.9904725924188889e-04 -9.9747849322192597e-04  -1.3103152500711052e-02 2.4014124719720208e-03 -7.0456337386621561e-04  1.3585609408899633e-02 1.1513675150767707e-02 6.8801342558043910e-05  1.4372007828272790e-02 1.2378444527861186e-02 4.7693561581731099e-04  1.3477218412202207e-02 1.0481128938776304e-02 1.3955594451168973e-04  1.0975250242414455e-02 1.1352171003962540e-02 8.2650091963584808e-05  1.1996571857968640e-02 1.1845373506292989e-02 1.3065394351663279e-04  1.1259940400602544e-02 1.1500925564734693e-02 -1.8686590099714768e-06  -1.1048054313123950e-02 -3.9696417165944803e-03 -7.1071998105648329e-04  -9.4649144524749720e-03 -1.7113302754691844e-03 -4.8483162539513034e-04  -8.6421457023690678e-03 -2.3485027295561127e-03 -8.0053943631988383e-04  -9.1572570562954807e-03 2.7140283487053552e-03 -5.0160232768696423e-04  -7.4283839840207358e-03 9.1418577794699890e-04 -7.8077805435106508e-04  -7.9758459284571554e-03 2.5906170013800271e-03 -7.2069499405386149e-04  -7.3765288917966671e-03 -1.3608995780938287e-03 7.0973720144809629e-05  -7.6206462211183303e-03 7.0360788321968920e-04 -2.8144826560568914e-04  -9.6022338505340685e-03 -1.3801670074564145e-03 4.8400616539462385e-05  -1.0970786136969278e-02 6.9046775297307615e-03 4.7140408112643096e-04  -8.9632455642019975e-03 4.2776349814986556e-03 5.6378168704343686e-04  -1.0286374671146188e-02 6.1367372482360859e-03 1.7259619578514183e-04  -9.3258252619895770e-03 4.5759976249442700e-03 4.9967503825319422e-04  -9.0003410884522510e-03 -3.6366106299238702e-03 -1.9407123283636044e-04  -8.1436581957676085e-03 -3.1657162906552935e-03 1.3958333842184223e-04  -7.5302141544772586e-03 -2.4178255816116683e-03 -7.0139172430863710e-05  -6.4819293492809626e-03 -1.1870151348686235e-03 -2.6716706866592355e-04  3.4478460453805115e-03 1.2082059273453474e-02 8.0189205785427488e-04  -3.3727395738384325e-03 1.2802081030940797e-02 7.5166593840899308e-04  -2.5273152528039670e-03 1.0210121331757457e-02 5.4475335898584944e-04  9.8451466239878288e-04 1.0290352424736655e-02 1.5491670685023966e-03  -1.1638557901709812e-02 1.1478427111447035e-02 2.2163645292811086e-05  -1.1456534381546821e-02 1.1486190921541151e-02 -2.7238425963611987e-04  -1.2456367801303858e-02 1.1502561205128433e-02 -2.2099730374484203e-04  -1.2715064453222990e-02 1.1791667106852938e-02 7.3434656738401483e-05  1.0536276415773789e-02 1.1667401180125535e-02 1.9266262252180504e-05  8.9418584104898700e-03 1.0186522178721047e-02 5.2146835550808411e-05  7.7544932917883464e-03 9.8355761218998604e-03 1.0860388691571085e-04  9.7996937480331423e-03 1.0823357393066177e-02 -1.0539903289327821e-04  -1.9395764930518686e-02 9.6851591835114513e-03 -9.0270718978599572e-04  -1.4343892092375542e-02 9.0055753907509004e-03 -9.7147406689402136e-05  -1.4890761624520169e-02 5.5712156294500971e-03 1.9379393443447556e-04  -1.9087699594909718e-02 7.2916115930457487e-03 -1.5403951296009586e-04  1.2633590572139034e-02 8.6874704555066802e-03 -2.0883795377218940e-06  1.3766750722640643e-02 1.0957757998154733e-02 -3.4516386458884120e-05  1.4659304589900765e-02 1.0224082745843225e-02 -3.1278247896872433e-04  1.5569969759562850e-02 1.1959637082177250e-02 -4.9795460225532536e-05  -1.8660471641166528e-02 -1.8883599296595599e-03 9.6995301530753724e-05  -1.3775123481059186e-02 -1.6615999283769577e-03 9.7344421428231649e-05  -1.8855069298419781e-02 -5.7720073246629216e-03 6.1431160145127914e-05  -1.8667205009681716e-02 2.5111533415730376e-03 4.4248317993415969e-05  -1.3895886920212736e-02 4.4050696516252010e-03 1.6459080039549488e-05  -1.9069398149298023e-02 7.4925071361848792e-03 2.5939206045813822e-04  -1.3768469328671078e-02 1.3486285356704774e-02 3.9614268563888561e-04  -1.4923554028729647e-02 1.4547945557958448e-02 1.0016644576073541e-03  -1.3319951067399687e-02 1.2572276896495403e-02 3.5057288994693695e-04  -1.6025527363344418e-02 1.3646441301787526e-02 1.0041284161923776e-03  -1.5432484967518983e-02 1.3796302428362701e-02 1.5699723157398829e-04  -1.6566866078374390e-02 1.6347444223558511e-02 1.0047155055060084e-03  -1.5978082244783552e-02 1.6405867960729421e-02 1.8007393394068599e-04  1.7189783427402114e-02 1.5695422968547326e-02 -1.0523800782416409e-03  1.4477644357675859e-02 1.4517204604185811e-02 -8.2286569713484377e-04  1.6577582039643823e-02 1.6965214841537162e-02 -2.0136182782270651e-03  1.4828616953832410e-02 1.6915257745222460e-02 -6.4584518167477172e-04  1.3566923549522880e-02 1.3082939582723335e-02 -4.2025709442723800e-04  1.2677354671977264e-02 1.2497336171153912e-02 2.7862357452056092e-05  1.3942735518170768e-02 1.4329850552899634e-02 6.1984350423128055e-06  1.5380215090895754e-02 1.4156998917619179e-02 -3.8027539374078988e-04  -1.0607035345542058e-02 1.1652452001128875e-02 2.9080723537667239e-05  -8.2161465252465239e-03 1.0106660584541882e-02 6.6400960883899682e-04  -7.8235278762973075e-03 9.9384435816548752e-03 4.3361939716228542e-04  3.5639609894667929e-03 6.4393195211266572e-03 7.8145365299480687e-04  2.5177787742350264e-03 5.6390615460145954e-03 1.0861975639518682e-03  1.1946019777317395e-03 4.5049537716640329e-03 1.0100766826349056e-03  1.8583127320847966e-03 4.9235870580391829e-03 5.4664663869705143e-04  -6.7836291601181308e-03 8.5458773596095762e-04 -4.3138603610262324e-04  -8.9837906960250728e-03 -4.1580860644236609e-03 -3.8150372140029600e-04  -1.0701978495493892e-02 -6.3304910119694521e-03 -3.6256317547271588e-04  -1.0133166217772483e-02 -5.0724612462012524e-03 -8.5920661445221085e-04  -9.0176236785979337e-03 -4.0414717663167466e-03 -2.4872811675352328e-04  -8.2385168853656709e-03 2.6101195656963372e-03 9.2515835384379078e-04  -8.6701704426702317e-03 3.6746114352213450e-03 9.4889389363091820e-04  -7.1748830763882741e-03 2.1171419256406465e-03 8.3281437109101000e-04  -1.4383246261363518e-02 1.1839482427169487e-02 -3.3830102997169835e-04  -1.3846278331644623e-02 1.2339543162007471e-02 -2.0850915167225820e-04  -1.3438325208877199e-02 1.0897710330068883e-02 4.7666460545417172e-05  -1.8069050377736283e-02 1.4331009196093045e-02 7.4809151301771088e-05  -1.5107687481922172e-02 1.2555597622904164e-02 -2.8456072501108800e-04  -1.5797978743182960e-02 1.1166103327422754e-02 6.6841297682551805e-05  -1.5137401692985679e-02 1.0369979171335969e-02 -5.7583661393544245e-04  -1.2195316477966425e-02 7.2756664021348645e-03 2.0705875031357617e-04  -1.3010314775284628e-02 7.8383056845116907e-03 1.7780990711806552e-04  -3.7156189186430329e-04 4.7503057128475707e-03 7.5269573508606998e-04  1.6389478953950122e-03 5.4867800173509845e-03 8.2044594171251639e-04  1.3357192313345683e-04 3.9746185212383182e-03 9.5442831565799335e-04  6.3881947683376962e-04 4.1482303653369570e-03 5.9527202253448978e-04  -1.2268225257859875e-03 4.2881577132432283e-03 9.4687857218173204e-05  -2.6265263811671240e-03 5.3544402931723547e-03 4.2587017244172559e-05  -4.0373906839590605e-03 6.6363608066092343e-03 -1.9776489747794481e-04  -1.2741465237143131e-03 4.3480978348201397e-03 -3.5680239238528770e-04  1.4339644854597787e-02 1.4371673905673545e-02 8.3513623937276130e-04  1.1374647872948963e-02 1.7397533042377684e-02 4.4998305393658403e-04  1.4893951998902592e-02 1.6915241355699460e-02 6.9194387133335344e-04  1.3483127553787024e-02 1.7783360456382923e-02 1.6165628939380427e-03  -1.8818484913333731e-02 -1.1332588164953864e-02 5.6171838136519587e-05  -1.4717908466800286e-02 -9.0188296146753999e-03 2.6002936154047249e-05  -1.9018922368240220e-02 -7.1572813818787549e-03 2.5461064201539902e-04  -6.4753587549524995e-03 8.6659960597972058e-03 6.3911248482452162e-04  -6.4790739117089489e-03 8.5947605724796521e-03 2.3826053279438810e-04  -1.3634334084632542e-02 1.7158020647851064e-02 -4.0863432423551366e-04  1.3116453198457459e-02 1.1667744688213437e-02 1.6774223210152330e-04  1.2676233442925035e-02 1.1847757916649266e-02 8.2441413694134106e-04  1.1968467278851926e-02 1.1568549734032176e-02 3.0553441084575178e-04  -6.5617653164222710e-03 -1.3292170525551505e-03 1.8236246924250549e-04  -6.0160743595123441e-03 -3.6892570356369784e-04 4.3375649421494548e-04  -7.6779166304506161e-03 -2.1736745410179002e-03 5.1831704538097916e-04  -7.6957871720329980e-03 -2.5706925138019848e-03 4.0295496431979276e-04  -7.2840380641274799e-03 -1.2495828531636068e-03 -3.7200952812509939e-04  8.0733970241498691e-03 1.0751917701484814e-02 5.1765630500518226e-04  8.7466174685680992e-03 1.0595960320243255e-02 5.3011018755250551e-04  6.6434142941633242e-03 8.9296163192883731e-03 9.1869891310194574e-04  7.5509418288680664e-03 9.3236692460514411e-03 3.9775978534834530e-04  1.2663632220742682e-02 1.2601782633446039e-02 2.9218955129246436e-04  1.1622392211837135e-02 1.3087158427166777e-02 2.3666027946113639e-04  -7.2966749857386543e-03 9.1114859925186739e-03 -2.0868002136468242e-04  -5.2085506278034795e-03 7.4718523631640849e-03 -5.4582929324300850e-04  -7.8209763697619748e-03 1.3187809500742038e-02 -1.8451641145780304e-04  -9.6012818719472242e-03 1.7358428115289353e-02 2.3102063433059393e-04  -6.1123842908800572e-03 1.2439637946784989e-02 6.6983235288107620e-05  -4.4809432966585678e-03 1.7120513981759573e-02 -2.9552543089133183e-04  7.8813454737206013e-04 5.8152125468954709e-03 -7.8697727694052727e-04  7.4095691344057803e-04 4.1489881764549289e-03 -3.7068193247364342e-04  2.4802963549419414e-04 3.9918304758917540e-03 -8.8773965861453012e-04  1.3369015753962547e-03 4.5752657029765106e-03 -9.4698924351498625e-04  -1.4629441863400009e-02 1.2890011847462711e-02 -6.9807549066712654e-04  1.0442792980407472e-03 5.3896127267757735e-03 -1.7002700904448186e-04  -7.7862511705791817e-04 4.9840260109585673e-03 -7.3485353705782762e-04  1.2710894550228296e-02 1.0079507496918091e-02 -1.0263634422821330e-04  1.2722803851435321e-02 1.1240934366554113e-02 -3.6252107297508293e-04  1.3103554425997699e-02 1.1441712453662569e-02 -9.2711945792018366e-05  1.2837968608100965e-02 1.0321868415688768e-02 -4.2871490087014369e-04  1.2344834610299551e-02 1.2204603858051629e-02 -8.8167962983561095e-05  1.0503056274805061e-02 1.1251301272781922e-02 1.0199548404816622e-04  -1.4480605340616019e-02 1.1003511588048626e-02 5.6972132678070431e-04  -1.3877387312469697e-02 1.1096131101493708e-02 1.4649587900439972e-04  -1.3017952006709497e-02 9.5821439512344779e-03 -3.0986342172575703e-04  -5.5106145232232890e-03 8.0916123620450447e-03 1.1907998744034680e-03  4.7511458699292519e-03 1.2294864954494802e-02 -5.5740413146727202e-04  2.3717982544859103e-03 8.0381857533466088e-03 -7.8565083347426751e-04  1.0480312625859199e-03 1.1097740043767079e-02 -1.4363745598675586e-03  5.7263597929795912e-03 1.1038215962847521e-02 -8.4590805950773829e-04  -1.5307777940940886e-02 -8.8247702641719855e-03 3.3099671078386825e-04  -1.3779705260321063e-02 -4.8474587250497414e-03 -2.0696741158546922e-04  -1.4297411733210629e-02 -7.1496733271384791e-03 5.7284990816313628e-05  -1.9139760311291984e-02 -4.9949271175244699e-03 2.3633185963579860e-04  -2.4445640367782152e-04 3.9156963362299716e-03 -1.6345576986104786e-04  -2.3655553265898528e-04 3.9733368005130743e-03 -5.2807555027273398e-04  9.4420911914208996e-03 5.2543581184651793e-03 -1.6925782172002638e-06  8.1531841191943080e-03 3.5237551855050006e-03 -6.3186349187404335e-05  9.8220141297620089e-03 5.3370273153354559e-03 -4.4322562427340624e-04  8.1927796613064860e-03 3.5396411524133082e-03 -3.9251913403332071e-04  -1.7908188327117363e-02 1.5953836332403316e-02 2.1176669567832059e-03  -1.5604065010821420e-02 1.2892685449778195e-02 1.1838625528496779e-03  -1.9136883719374699e-02 1.3419455195670234e-02 1.8563858501093812e-03  -1.2867155488451430e-02 -5.2757732906161276e-03 1.9758886295257824e-04  -9.5934868926888066e-03 -3.0061596870623419e-03 5.6621688547406606e-04  -1.0338337311924253e-02 -3.3317359186930734e-04 6.0266961034996373e-04  9.2953577174278851e-03 4.6975558088510078e-03 -7.3237128533647125e-04  8.1381863695522434e-03 3.5083992734023716e-03 -4.6087478798007697e-04  9.2039860050465300e-03 4.4502713631984830e-03 -9.2033711270374122e-04  7.5749210618572416e-03 2.7145506967090603e-03 -8.0598402440973057e-04  -3.4688435879737787e-03 1.2886112437242837e-02 -6.5848675953757900e-04  -3.8931355194468612e-03 1.0920512400156448e-02 -1.1679523104898462e-03  -1.6260379992157497e-03 1.7136141639082871e-02 -8.1983061192330263e-04  -7.2583710938090244e-03 -6.8224956119911713e-04 -7.6446855219693848e-04  1.2473206397757180e-02 9.3659867933672501e-03 2.8046412401045909e-04  1.1447069280297357e-02 7.5254928319151808e-03 3.1053945943264224e-04  1.2309864764734698e-02 8.5256837965703488e-03 9.3323039821368832e-04  1.2416688301732240e-02 9.1518932618780847e-03 4.6048921252915824e-04  1.2488542587396741e-02 5.7170932999781789e-03 1.1211817318570850e-04  9.9019702018183671e-03 4.2456988896645738e-03 7.4350248111382301e-05  8.5423582318909421e-03 2.2161869225688891e-03 4.8299266728499214e-04  9.9346809796703323e-03 5.4395845720531738e-03 2.3938236012317394e-04  -1.8858576712044644e-02 1.1591033573512644e-02 5.7614464584219776e-04  -1.8977811548282958e-02 8.2178425253374918e-03 1.0282318295804624e-04  -9.9841334127298443e-03 -4.8765674698788355e-03 2.5741059184303163e-04  -1.2024424591302065e-02 -6.5331302854176833e-03 7.5014668592908424e-05  -9.7279197141746342e-03 4.1550127666469018e-03 -4.5437099266502941e-05  1.8753952379123265e-02 5.2454634394537882e-03 1.8036131762131437e-04  1.3544694946704213e-02 3.1561163621170937e-03 -3.3752036250625966e-04  1.9128141820345137e-02 2.7987923471331747e-03 2.1115159833607895e-04  1.4092756061354508e-02 1.1021192306351332e-02 -3.4474826483995262e-04  1.3253067018336220e-02 1.0304338790261465e-02 2.1669233530138615e-04  1.3017311245378194e-02 1.0288949571292595e-02 1.2427728411184275e-05  -1.4111421752767276e-03 4.4660385186972417e-03 6.1279976590489108e-04  -2.6505974459825744e-03 5.7078664064331578e-03 2.5923185330019538e-04  -2.7844663569290347e-03 5.5373732116792340e-03 5.5874911179330431e-04  -8.2920661400387487e-03 3.3396000801641746e-03 -3.2417366119441278e-04  -9.1943019289314094e-03 4.7546728902135328e-03 -3.6906823793457625e-05  -6.6957333258803944e-03 1.7439257262915485e-03 -1.2731919603967205e-04  -7.9905894540451099e-03 3.1380920952225389e-03 -2.8618103623506328e-04  1.3546962747788646e-02 1.2065724226097014e-02 1.6831393201567293e-04  1.2728317340040630e-02 1.2012618291019664e-02 2.1893457310170693e-06  1.2538299452161590e-02 1.1861556273705711e-02 -2.5696481398442613e-04  1.5286898877775599e-02 1.1860849565448195e-02 9.0639834357884082e-04  -2.8877059786435610e-04 7.6365672871507428e-03 -1.5443881613255068e-03  -7.7817120201013395e-03 1.1343686531921257e-02 -1.1033169861957610e-04  -1.1734914073754188e-02 1.3551024786255191e-02 3.6838455679726674e-04  -8.3430092050409341e-03 1.0499288265036421e-02 -2.1499699408322268e-04  -1.0980919372169646e-02 1.1848945596613836e-02 1.3606583890018176e-04  1.2570455969566109e-02 8.8682315509140946e-03 1.9120926089132135e-05  6.0038068899484019e-03 1.2086596450682869e-02 7.8271350930946828e-04  5.9291855975169639e-03 1.1364090025503207e-02 3.2279309618126920e-04  1.3166640549855375e-02 1.3833662161985474e-02 8.7830514566431645e-04  9.4880758778681518e-03 1.1505465818261177e-02 -1.8518191121986202e-04  1.0632137052619046e-02 1.1761128834694429e-02 4.5810940279841019e-05  1.0283499326966235e-02 1.3387914238911074e-02 2.7636131192532100e-04  -1.3695882977395969e-02 1.3470448913129698e-02 -2.9516457524768249e-04  -1.0807738918828084e-02 1.1702869480906737e-02 5.3695328884716648e-05  -1.2910401553809911e-02 1.2545837916664028e-02 2.4666441632565486e-05  -1.2534318766937884e-02 1.4025305512767868e-02 6.0751275546104862e-05  -1.3312090620154619e-02 9.5941980223979966e-03 5.9128859042745840e-05  -1.5563451383556349e-02 1.0920454513108777e-02 5.4145803378837659e-04  -1.5108067765610597e-02 1.2240008907448799e-02 4.3982350312690401e-04  -1.4141806256804466e-02 9.7254908279906422e-04 4.19