<?xml version="1.0"?>
<VTKFile type="UnstructuredGrid"  version="0.1"  >
<UnstructuredGrid>
<Piece  NumberOfPoints="176" NumberOfCells="644">
<Points>
<DataArray  type="Float64"  NumberOfComponents="3"  format="ascii">0.3808210433871149 -1.763882641155164 0.817384939724187  0.3085523311331526 -1.969610247897571 0.6877920714727481  0.4909769421302074 -1.93099433805855 0.7575947101728453  0.4013802327098077 -1.958173202723359 1  -0.478103915917917 -1.622351537092959 0.6977077997690853  -0.7019581915565072 -1.428580415300582 0.6030955109277132  -0.5009139441539338 -1.349251873811594 0.5222432048981768  -0.600331598708143 -1.59479459233563 0.5327841362643094  -0.391399680066276 -1.237628786651703 0.6919365007968804  -0.2590693906238568 -1.20275231542913 0.4440646667880484  -0.0283024105191868 -1.319764063833097 0.6643409374643552  -0.3013774395956234 -1.46260667850183 0.4980611061261317  0.509899363520301 -1.411274404689723 0.7930410904030668  0.3070347646120418 -1.231266475456671 1  0.4006956025444619 -1.24843802094553 0.6812500201025888  0.2057664659883401 -1.423434689071494 0.7640294242581815  0.2382892175692876 -1.471591899036973 0.4955209781265861  0.2441482264665806 -1.68711095498594 0.2543611194868012  0.1435408183010254 -1.450724164001282 0.2140138195018315  0.364943845569369 -1.449405072691717 0.2215112330483742  0.2062702119573308 -1.209832294552009 0.5069451591351182  -0.03861139831730298 -1.305902836371665 0.3300992328426874  -0.05411455619544295 -1.180335689722473 0.5033519982168086  -0.2895078849523348 -0.9521440258122447 0.5362539270910905  -0.1357582835267979 -0.9866289761380859 0.6952505369826913  0.580573651550607 -1.903815473393742 1  -0.3199640933144202 -0.9429052360103518 0.2421718464526027  -0.2125504397148364 -1.162691776221664 0.1975610850782581  -0.1357582835267979 -0.9866289761380859 0.3047494630173088  -0.4351952344254975 -1.947915534096728 0.6879022171241533  -0.2402120605469595 -1.711293099448459 0.5951721536062687  -0.4600007231585856 -1.741224516301115 0.839054333966232  0.2714449589252247 -1.737958397311344 0.5450653594799665  0.1950572695963902 -1.642354837545477 0.8022942540786289  0.03120277905539251 -1.811956316928485 0.8125929633736308  -0.4440833295236094 -1.71425197172058 0.4678594158892408  -0.4183657802379684 -1.953020693211437 0.408732946950341  -0.5813842162651643 -1.903569591275731 0.523429982291165  -0.3808198010052772 -1.790558406603984 0.1504571686824595  -0.5815907792414369 -1.730327197418943 0.1999992988745308  -0.5077763251465293 -1.9258983009339 0  -0.4183657802379701 -1.953020693211436 0.2277978856468753  -0.07500943433028509 -1.474435204751512 0.1919497770721977  -0.3137778112923204 -1.68608512553939 0.2678397090627448  -0.03520767882359688 -1.640567625407656 0.3320536221747551  -0.1566368448175122 -1.793720957643859 0.18398156279419  0.05030182414384535 -1.803661568783909 0.2036923702794375  -0.03543509394030583 -1.764333212356711 0  0.2713321621710769 -0.9576575710401055 0.4639489892092016  0.2407869516577543 -0.9669233593494102 0.2422811437659894  0.05343103384430749 -0.9947375024938501 0.5  -0.2014555392941981 -1.478248236877164 1  0.003668755892212508 -1.493215934204981 0.787439376260352  -0.02232178777519556 -1.473130981466516 1  -0.154369246248236 -1.699740344597331 0.7947821971961868  0.1007019071959621 -1.603439299358557 1  -0.9480652577231136 -1.538949907681568 0.8061489537317872  -0.6368272338775195 -1.693027353228223 0.8099549854831261  -0.6846365793693017 -1.619799801115259 1  -0.87374366514047 -1.789830458324557 1  -0.3199640933144202 -0.9429052360103518 0.7578281535473974  -0.2659591891699546 -1.1284900652415 0.7985766483770914  -0.590119815534959 -1.900919676207915 0.3182654162986099  0.05343103384430752 -0.9947375024938501 0.7658315521872422  0.5834852897946156 -1.717308399664762 0.1887386398541893  0.397761442467862 -1.76067971301323 0.1654331644783746  0.5973730345669322 -1.89871943626909 0  0.5007099757113176 -1.928041854600282 0.3180605671254946  -0.01611705518357669 -1.173434577098943 0.1859369354259534  0.07154606132155185 -1.321715210143045 0  0.1477956984970681 -0.9854433942448714 0  0.1801353948751905 -1.193599542703115 0.2007384199400539  -0.7677466476962631 -1.430304235837895 0.8149664493944945  -0.5616060024380179 -1.386687091185208 0.8148643367043878  0.04801221851458279 -0.9952712092202078 0.2405432884014712  0.2407869516577542 -0.9669233593494104 0.7577188562340107  0.4037512339627746 -1.080144681274499 0.7916997388280334  0.4195556527163921 -0.9041709201262842 0.6951876610204601  0.3315216749971926 -0.9393992819363619 1  -0.7219618228038823 -1.307247678942268 1  -0.424931754213151 -1.254338206796035 1  -0.5126054700643949 -1.558802044544336 1  -0.7773345907527112 -1.628786731198925 0.6526384974201469  0.2154728929730389 -1.978777772385657 1  -0.2495643282831916 -1.975420059079501 0.523296014419804  -0.2558928613726579 -1.974796752974326 0.7590571066826004  0.1565705466232291 -1.98457914713868 0.5229942139642612  0.1475013517951027 -1.985472384864622 0.3180605671254942  0.04828442375762464 -1.791526417147052 0.4778949596205868  0.3259282302928228 -1.967898871204743 0.4084490649969672  0.1222954257414549 -1.987954951894562 0.7650725853231248  -0.1841632852949054 -1.481781513248469 0  -0.4201509119839557 -1.525914389044415 0.189673720245272  -0.2066708202968356 -1.710304351128139 0  -0.2063280620574955 -1.495866829825451 0.7392619680215531  -0.2831750095673835 -1.332000524373365 0.8438495817462545  0.1630944082857211 -1.206736717024586 0.8238329233967183  -0.4925834195271322 -1.072587773108498 0.7942257610232533  0.2828443174131989 -1.737656437702833 1  -0.3883412669983054 -1.709972901898877 0  -0.1591006558617752 -1.799092254611054 0.4138410682020805  -0.04681361121901211 -1.995389261734823 0.4985223211824886  0.4780196499422931 -1.718624147876173 0.4860276821231871  -0.2291981602613921 -0.9704387807865139 0  -0.4224459877560165 -1.246963081678484 0  -0.1715341369901447 -1.250280438524388 0  -0.06985643973039744 -1.505194664433397 0.523152896576856  -0.6681267201658774 -1.099552128393463 0.6661740090429282  -0.8234030488632201 -1.227864263700687 0.7971660546693747  -0.4956491309591998 -1.563380666785781 0  -0.570561261929752 -1.566210270682464 0.3269063393272681  -0.06425241373943445 -1.993671689601718 0.729857195431886  -0.04138279557917732 -0.9959241503885642 0  0.07147491772190356 -1.320431062428882 1  0.4566179955496571 -1.609390190456626 0.6989686505589768  -0.7913424350245954 -1.833874833437536 0.7298481380810278  -0.703769127003654 -1.86644453447963 1  -0.6141724175832546 -1.893623399144439 0.7648375940174668  0.5038238211581905 -1.074271211065006 0.5112063182307277  0.384799343308686 -1.090040125494568 0.2000785832607395  0.3833720884367542 -1.248266169376449 0.3125100964111098  -0.07109493962348024 -1.160016603803898 0.7913171746870674  -0.2070688864027299 -1.749288561046629 1  -0.3435919104164638 -1.966159150560913 1  -0.1572369759532961 -1.984513509578723 1  -0.4792183519131534 -1.094876157717112 0.5312084515566817  -0.4088784021612257 -0.9098780294493575 1  -0.2291981602613921 -0.9704387807865139 1  0.1055482849989484 -1.63881390081868 0  0.04658873361579337 -1.995411410245547 0  -0.3004712434665469 -1.361497103422282 0.2311894560585964  -0.3577107155310289 -1.419581028094554 0  -0.1397662008473739 -1.986234230736643 0  -0.8300753132502592 -1.509513793106689 1  -0.1714146569792246 -1.249399926207965 1  -0.5229419073512893 -1.071131864134972 0.1858598554011229  -0.5521062382202796 -1.211666613348794 0.3442023460192692  -0.7757759682717937 -1.842195283264316 0.4985126599772499  -0.7840616717201718 -1.583902828399041 0.4377923672640045  0.4296356271564918 -1.668302941522659 0  0.2329436680789611 -1.977057051227738 0  0.4181796157261328 -1.953077165598708 0  -0.2405080359740243 -1.976312026018243 0.3182654162986064  -0.04681361121901163 -1.995389261734823 0.2684782053199095  0.3259282302928228 -1.967898871204743 0.2276720692540216  -0.5245757081628545 -1.920802263809248 1  0.4437787684872145 -1.472384709319954 1  0.6936374543645428 -1.490116486267707 0  0.617899748202294 -1.653792821188109 0  0.3625909582016644 -1.44728628771407 0  0.6027785381133539 -1.359332156263882 0.2124371689903601  -0.3745805923603168 -1.706049989398783 1  0.3050541620145898 -1.223363442299307 0  0.5587472371219874 -1.203112900522971 0  0.02911795850987068 -1.997132131403467 1  0.02102039698148424 -1.670231480651327 0.6665040657880474  -0.5554583074974289 -1.700068917560503 1  -0.3793482891095545 -1.432319692681395 1  -0.6869697439873288 -1.871540571604282 0  -0.7580030332512193 -1.620602597475575 0.200800306043187  -0.04382570390722906 -1.692004976314984 1  -0.04138279557917732 -0.9959241503885642 1  -0.775775968271794 -1.842195283264316 0.2684499835474483  0.1477956984970681 -0.9854433942448714 1  0.1011187221479815 -1.772944272062136 1  0.5105785823554512 -1.583270420542069 0.3212501110323914  0.4598397724961487 -1.407027747603131 0.4646693967668116  0.2622963428434327 -1.552259734357269 1  -0.7625848589994415 -1.249272832911995 0.4545509433042903  -0.3261211353105415 -1.967879871718833 0  0.49198228108192 -1.930689371821647 0.5229837268563096  -0.670056525276606 -1.377886873936386 0.2250212001955873  -0.6240956319681428 -1.097419055583654 1  0.4999697403346577 -1.076876380065217 0  -0.5391031786369436 -1.386651023185445 0  0.3315216749971926 -0.9393992819363619 0  </DataArray>
</Points>
<Cells>
[...]
<PointData  Vectors="f_10-0"> 
<DataArray  type="Float64"  Name="f_10-0"  NumberOfComponents="3" format="ascii">3.6636401118239847e-03 -6.1449437987185652e-03 -7.2129703940818047e-04  1.8090134611555252e-03 -4.5031044399633001e-03 -4.5584822703945556e-04  3.3319246369357125e-03 -5.8474727812186005e-03 -6.1332308391664136e-04  2.4301142351599485e-03 -5.2023210396946436e-03 -1.0793983793249298e-03  -5.7666670105841061e-03 -7.7640313688551767e-03 -3.7810695399047761e-04  -9.5138306881906026e-03 -1.0385558147082174e-02 -4.6231605665279524e-05  -8.2681179826800590e-03 -1.0332883580160802e-02 -2.0772533612734880e-06  -7.1773973017768972e-03 -8.6384771972223308e-03 -4.4006819716412734e-05  -7.8738883646722550e-03 -1.1422074384516400e-02 -1.4324557414878262e-04  -5.9648848603426089e-03 -1.1818842815950862e-02 1.0003503123836183e-04  -5.9686406837974036e-04 -9.5682517534103895e-03 -4.8139904552165863e-04  -4.7618235485900580e-03 -8.2748951664587747e-03 6.9706234052726454e-06  7.7686887440835770e-03 -9.8410595489865863e-03 -3.5437084605801316e-04  6.3015715427214257e-03 -1.1754990667710772e-02 -6.8988728238951328e-04  7.8414844994626771e-03 -1.1303406774066101e-02 -1.3435222946981521e-04  3.4789471642336189e-03 -8.4695539970484606e-03 -7.4302307755402331e-04  3.7093599811840786e-03 -7.9192015249340952e-03 4.2388368864489488e-06  2.6680331474758898e-03 -5.9323028137346660e-03 5.9702601379678518e-04  2.3267023096641319e-03 -7.9529913955273847e-03 8.5538262569926575e-04  5.6374294573478239e-03 -8.7763725004592185e-03 5.4626112195228468e-04  4.7188812814072598e-03 -1.1639907655189968e-02 -5.4896579339173340e-06  -8.5019854446556316e-04 -9.8029141189446417e-03 4.9526258599370333e-04  -1.3667769028173431e-03 -1.2179490914321566e-02 -8.6545464332907196e-06  -8.3350156318092710e-03 -1.7025818821530710e-02 -3.5761856901799523e-06  -4.0783118067530249e-03 -1.6812303650536833e-02 -2.9273350040121888e-04  4.2108181254418035e-03 -6.8152390395040180e-03 -1.1573304838349324e-03  -9.3589837445175097e-03 -1.7086821674727821e-02 -9.3597313850523849e-05  -5.2295130855170378e-03 -1.2592597932432543e-02 5.0341870969566275e-04  -4.1185581448261819e-03 -1.6809849924241768e-02 2.9290399861913688e-04  -2.8846494696684651e-03 -5.3397111887447850e-03 -4.3774805342657372e-04  -2.6246726539465681e-03 -5.6730559940852280e-03 -2.4610660532449984e-04  -4.6491607346337465e-03 -6.8163698250872044e-03 -7.1148121208889172e-04  2.7299316435125775e-03 -5.5992134798366622e-03 -1.2163954679478135e-04  2.3240565434471719e-03 -6.1540536791557165e-03 -8.1890748708466851e-04  2.3890192592043486e-04 -4.5656846562757763e-03 -7.4880735675369862e-04  -4.7264634920563741e-03 -6.7690137185969761e-03 6.9812880887212771e-05  -2.7385995597227508e-03 -5.1749080561094146e-03 2.1104157039615726e-04  -4.3498914169610436e-03 -6.5725577525583322e-03 -5.2825913034870809e-05  -3.5675797579803425e-03 -5.9589205114281545e-03 7.6394260678232316e-04  -5.8817407292919071e-03 -7.6763695588744534e-03 6.0165614636014753e-04  -3.5267709984829494e-03 -6.0960078153663071e-03 1.0951606501282051e-03  -2.7248711891911487e-03 -5.2332046934927450e-03 6.1693211840524204e-04  -1.2544970105409371e-03 -7.5322102111561370e-03 9.7818986451985042e-04  -3.5504154164863735e-03 -6.2693150037637256e-03 5.4663137322625167e-04  -4.7977991346396430e-04 -5.7250686183845430e-03 4.7922360885707931e-04  -1.4854622830995261e-03 -4.8808443423002034e-03 7.4134113315533936e-04  3.9903102141461221e-04 -4.6178364449681918e-03 6.9190711990903926e-04  -3.9940997517106324e-04 -4.8622728275699778e-03 1.2136187799033789e-03  7.9455522950850552e-03 -1.7042767366393239e-02 3.0029893856094455e-06  7.0252005484951119e-03 -1.7036306095302003e-02 1.2690830420900237e-04  1.4490548954082774e-03 -1.6439284301564855e-02 1.4124642596458438e-05  -3.0871214461539219e-03 -7.9638149351574181e-03 -1.3717384888719849e-03  2.9945855171642436e-05 -7.2696606947067295e-03 -9.1715266437008809e-04  -3.8047043598882560e-04 -7.6457422728666473e-03 -1.5539568018340631e-03  -1.7197701907704468e-03 -5.5505375225171107e-03 -7.6290338644853072e-04  1.2401949180648041e-03 -6.3076928354043804e-03 -1.4361187966188300e-03  -1.0282015979772898e-02 -1.0724840882132930e-02 -3.0682937915267161e-04  -6.6800980664511005e-03 -8.3127253518540251e-03 -5.5676696857226155e-04  -7.6871809145681791e-03 -9.3086570725092431e-03 -7.6674265649868533e-04  -7.6532783561095944e-03 -9.5208456744629005e-03 -1.0189515132702158e-03  -9.2709766266374141e-03 -1.7123733251739104e-02 1.3842136866004979e-04  -6.6380534655769768e-03 -1.3249170567752299e-02 -3.2581881243747284e-04  -4.4583489191793134e-03 -6.6756615397857806e-03 4.0795951761819619e-04  1.5510226640247243e-03 -1.6604983077981340e-02 -4.9642009022375243e-04  5.9169945409798192e-03 -7.7878327328201038e-03 5.8258937527309938e-04  3.8267489987543041e-03 -6.2614595325576365e-03 7.1253849537508966e-04  4.3555663319675923e-03 -6.9433399477374777e-03 1.0932644563050628e-03  3.4242719157863361e-03 -5.8842668962062958e-03 3.9589144638229928e-04  -4.5912780765457048e-04 -1.2332112757780836e-02 7.9644088160966096e-04  1.3298466072300666e-03 -9.8440125408125294e-03 1.4995817830847950e-03  4.2192879031835110e-03 -1.7120887111900251e-02 6.1653220460839049e-04  4.2498637635121194e-03 -1.2023590628718292e-02 6.1465198379151594e-04  -1.0036188857071028e-02 -1.0723505846511654e-02 -1.4764449312871920e-04  -8.6260309876523590e-03 -1.0302917433022338e-02 -2.3312354416086886e-04  1.3700969082183073e-03 -1.6588461832810923e-02 5.0479585986918458e-04  7.0640331491161439e-03 -1.7036611186797637e-02 -9.9188734810738325e-05  9.6692060717046922e-03 -1.3816068371360972e-02 1.2735348055072315e-04  1.1733561988926817e-02 -1.7018564475711605e-02 3.2409798789118094e-04  9.3973550433956166e-03 -1.7548637267864996e-02 4.8367244854975093e-04  -1.0749121730820922e-02 -1.1806582151115585e-02 3.9901442655585753e-05  -8.0167534852742962e-03 -1.1633611055330739e-02 -3.2858196220930457e-04  -6.4980501911982057e-03 -8.7180126475100879e-03 -8.3952989570657173e-04  -8.3617414762461630e-03 -9.4318475928104068e-03 -2.1155357516201452e-04  1.1665817703017233e-03 -4.1551750531779131e-03 -1.0321789179335657e-03  -1.5114576131510760e-03 -4.1718533332607667e-03 -5.8162331476086491e-05  -1.5376034013874784e-03 -4.2678260011532456e-03 -5.8860755235465073e-04  8.4305116371632494e-04 -3.8355325710228215e-03 -6.7597869430434030e-05  7.7819569072041638e-04 -3.8267211798237223e-03 3.9426304829413248e-04  3.9465983237116343e-04 -4.5836713473634350e-03 4.1177427929475603e-05  1.9229366137707552e-03 -4.5572542466484961e-03 1.8734436454772061e-04  6.4299673862028544e-04 -3.8041237124826028e-03 -5.9768531754697616e-04  -2.8519757133982282e-03 -7.8349142030442794e-03 1.3930650410083501e-03  -5.8615459583324005e-03 -8.3016177146206342e-03 6.1347135166847741e-04  -2.2038309717416268e-03 -5.6643627510122533e-03 1.2331546282080990e-03  -3.1856337756212797e-03 -7.5986078466558655e-03 -6.5327276441785257e-04  -5.3967885651556424e-03 -9.9502531959091579e-03 -6.9051502321354930e-04  3.7998213330836684e-03 -1.1784356694906096e-02 -7.1324745051731364e-04  -1.1144495385887201e-02 -1.3683129786026706e-02 3.0725980933669862e-04  2.7782186565177575e-03 -5.8252276401679843e-03 -1.1557933864535994e-03  -4.1146053859403946e-03 -6.6369847845720023e-03 1.0950216694821985e-03  -1.4894916332234265e-03 -4.7575350531395486e-03 1.8980772827446228e-04  -3.0624046159684814e-04 -3.6025860460545851e-03 9.5172558896488434e-07  4.9318429670842804e-03 -6.9683793845075207e-03 9.3299812284469561e-06  -6.5749997206192290e-03 -1.7278243654765501e-02 1.7913135664908078e-04  -8.0746737681622049e-03 -1.1683609441502204e-02 3.5990931042606647e-04  -3.6767118601428702e-03 -1.1207609128485993e-02 1.2046431243525799e-03  -1.1190735787452168e-03 -7.0750606422066526e-03 -6.9947975987522869e-05  -1.2391925762693268e-02 -1.3090335768542913e-02 2.7872582507795774e-04  -1.2126467621533512e-02 -1.2106520272787174e-02 2.5540859043770756e-04  -6.3092441740251774e-03 -8.5532199452738270e-03 8.9532473168235508e-04  -7.1462232571513741e-03 -8.7241581504256989e-03 2.9013963693221478e-04  -3.9016440502442429e-04 -3.6682013776684189e-03 -5.3012945426725506e-04  -1.1846348996696527e-03 -1.6741719092394282e-02 9.3157640922300849e-04  1.3737591297480237e-03 -9.8825920716111969e-03 -1.5032848983063927e-03  5.5505259082184802e-03 -7.7362646215653717e-03 -4.1892590421740587e-04  -6.6216354382287214e-03 -8.4879324410388687e-03 -4.7628384325415572e-04  -5.6029662124511817e-03 -7.9615892640494627e-03 -1.1145071161442783e-03  -4.6885795363417922e-03 -6.9552767645768270e-03 -5.8815740810024399e-04  1.1159248641514090e-02 -1.3587177659368434e-02 5.3711073265369365e-06  9.2532210542580814e-03 -1.3683274095386631e-02 -7.5798988397747635e-05  7.5843399913347008e-03 -1.1280068076411446e-02 1.5099458995612941e-04  -1.8266517910782414e-03 -1.2634741086629486e-02 -6.6884685729152072e-04  -2.0474972736489105e-03 -5.4014949797810173e-03 -1.1629807733773844e-03  -2.0624486551271463e-03 -4.8200496105838472e-03 -1.0539190321674698e-03  -8.7184764477286480e-04 -3.9402389053020620e-03 -1.0135404074616320e-03  -1.0659084377904164e-02 -1.3315632909067935e-02 4.3407581565118680e-05  -1.1401902104529191e-02 -1.7579067582210579e-02 8.7590479300809316e-04  -6.5597074602945921e-03 -1.7292137330681252e-02 -1.9324645892129493e-04  1.1943607303547276e-03 -5.9646835134111774e-03 1.3729791156938331e-03  1.7889624432655178e-04 -3.6716217127029873e-03 9.4047174138809904e-04  -5.4616161978913490e-03 -9.5361352638668843e-03 5.6506962128901293e-04  -5.6764386387344271e-03 -9.2919830039342524e-03 9.6689551434063525e-04  -7.9749499758968647e-04 -3.8653576316109973e-03 9.6603334946163924e-04  -9.8091668035873904e-03 -1.0742312715188201e-02 -4.8952813900248610e-04  -3.6516094838733469e-03 -1.1236087775688585e-02 -1.1830861951928535e-03  -1.1520385304466526e-02 -1.3655828633858480e-02 -3.4774364682532054e-04  -1.0152545580074569e-02 -1.1952255689493341e-02 -3.9453616534516016e-05  -6.4267209401295908e-03 -8.2869758199815794e-03 1.7150182888839676e-05  -8.8131335981908431e-03 -9.6986728596528717e-03 9.5320810871137151e-05  4.7181232584681786e-03 -7.2472456981964757e-03 1.0448090708474146e-03  1.2435087766378787e-03 -4.1826870664475159e-03 9.9481629832470276e-04  2.5494746839969636e-03 -5.3240173868361398e-03 1.0474635326598366e-03  -1.4616435837457517e-03 -4.1629545671713446e-03 4.0288415801926792e-04  -3.0700732013949573e-04 -3.6500808581181993e-03 5.0419998026388893e-04  1.9118158744816773e-03 -4.6353974671981607e-03 5.9931610089990770e-04  -3.6612805528344395e-03 -6.2684223116470971e-03 -1.1069751574285316e-03  6.3230311370115677e-03 -9.1366921353506301e-03 -8.8571600423214874e-04  8.8048681693317695e-03 -1.0270762924716183e-02 4.8758316806344422e-04  6.7092346470086234e-03 -8.6249479116951976e-03 8.6720299044724307e-04  5.4498925549078450e-03 -9.0042321081228900e-03 9.8354481791441029e-04  9.1868536411237166e-03 -1.0688419341260727e-02 1.2194519396135286e-04  -3.9566741341356942e-03 -6.6056331203628886e-03 -1.1107855467663156e-03  6.3080133959170365e-03 -1.1861286260229812e-02 6.5847847451083405e-04  1.0194427016854567e-02 -1.2493693816933681e-02 -1.5852086565523051e-04  1.1752726070805658e-04 -3.6801924028413628e-03 -9.7782974856283102e-04  2.0733034710751074e-04 -5.4794559906251091e-03 -4.7254291378930231e-04  -5.8158921312795962e-03 -7.8723398637930275e-03 -9.7744076408940177e-04  -5.8666688470670079e-03 -9.2587744421281370e-03 -9.4332378202407281e-04  -5.4490498457677138e-03 -7.7832973293912276e-03 1.1010486495917982e-03  -8.3140598505522714e-03 -9.4405740186426050e-03 4.4787185013310711e-04  -4.9871084535509081e-04 -5.4336301918303060e-03 -1.3141149031103080e-03  -1.2171460796243730e-03 -1.6760838697529770e-02 -9.1205261811787210e-04  -6.4345436074753019e-03 -8.3444179866741398e-03 4.9782322707992940e-04  4.2445818273832512e-03 -1.7112090598840380e-02 -5.3976766054304910e-04  9.1155104081120405e-04 -4.9178838820936105e-03 -1.1882399189570366e-03  6.3099024665738334e-03 -8.2470458258715549e-03 3.0062577178712331e-04  7.1746466864106850e-03 -9.5840922671460143e-03 3.6856318278414753e-05  3.5102949390003017e-03 -7.4188887161491775e-03 -1.2763304592838614e-03  -1.1553440516989893e-02 -1.1817764483882633e-02 -1.3200536382716027e-07  -1.9671550131251502e-03 -4.6780087812155341e-03 1.0214630238725663e-03  3.3350554752603623e-03 -5.7782669696694313e-03 -8.3224339976422043e-05  -9.7140047194841737e-03 -1.0709221260491418e-02 1.3620910778385203e-04  -1.2098227451373648e-02 -1.3601965305410954e-02 6.8926532250801107e-04  1.0890382947398334e-02 -1.4083285884964603e-02 -5.1105467811445070e-04  -8.2458399777142460e-03 -1.0451615630880198e-02 4.9068964047368135e-04  9.3509242072723087e-03 -1.7548562685994827e-02 -5.2617462945047863e-04  </DataArray> 
</PointData> 
</Piece>
</UnstructuredGrid>
</VTKFile>