<?xml version="1.0"?>
<VTKFile type="UnstructuredGrid"  version="0.1"  >
<UnstructuredGrid>
<Piece  NumberOfPoints="187" NumberOfCells="657">
<Points>
<DataArray  type="Float64"  NumberOfComponents="3"  format="ascii">0.7119454820819836 -1.311017197308812 0.7850254167931945  0.6711564508304207 -1.401253329984251 0.5622240771778685  0.7873485614796214 -1.551119900712338 0.747618612172079  0.509899363520301 -1.411274404689723 0.7930410904030668  1.571223386396861 -1.222896538248188 0.681768998400601  1.365943112648017 -1.134934275590741 0.4914509233146168  1.447765498390705 -1.373330410045335 0.7315215413413203  1.404410164647943 -1.149349917793486 0.7975908961567035  0.803830552736335 -1.241808787336111 1  1.027552987385453 -1.122421832866236 0.7520124683793958  0.9317589561501367 -1.126789045658179 1  0.9466024263613499 -1.337784875385508 1  1.015601792777485 -0.8204518079745813 0.6525547521204649  1.304637174418844 -0.7075626243921807 0.5186954339142219  1.054700059797406 -0.6058616406515142 0.4895215437898623  1.110028565937067 -0.5800778232130865 0.7539770568553924  0.9065780864506976 -0.7643401139982925 0.8193321493755804  0.8427521110205465 -0.5344621625620394 0.6951122958534079  0.8874756245502677 -0.4507903538350485 1  0.6565945984642327 -0.7485610582252132 1  0.7260749200787838 -0.683994037072515 0.7575866569922562  0.7862467646240011 -0.6106744323530362 1  0.4437787684872145 -1.472384709319954 1  0.3808210433871149 -1.763882641155164 0.817384939724187  0.5886194165627399 -1.607799173493189 1  0.2828443174131989 -1.737656437702833 1  0.8427521110205465 -0.5344621625620393 0.304887704146592  0.9275246612083398 -0.3706670534361827 0.2407973732256985  0.9290934823066148 -0.3654953433663091 0.5  1.254380730905587 -0.8083467088102502 0  1.452879240810067 -0.9256401028442123 0  1.469388374880087 -1.034040776775462 0.1882486755660968  1.347617246490652 -1.061163179822044 0  0.5031802934273266 -0.8594726184264059 0  0.7805047611923689 -0.9061187185566575 0.2197836778390664  0.6565945984642327 -0.7485610582252132 0  0.5790946986177532 -0.8121635823205643 0.2406591020066253  0.8638068359660822 -1.218302366084752 0  0.9324225297118618 -1.069640369270793 0.223104162955864  0.7932047642417024 -1.26389931307753 0.1963766327108795  1.030433715894798 -1.231858392111446 0  0.9080933109673303 -1.392933173756074 0.3219887364722751  0.818663626867002 -1.250496447075703 0.4758235842672084  0.5790946986177532 -0.8121635823205644 0.7593408979933747  0.7288306932309858 -0.9486137962695518 0.8304626122976658  0.7999786526575325 -0.8565217994501219 0.6452470139574003  1.157231385552274 -1.253901033215793 0.281726668262764  1.224429837858597 -1.367445394691974 0.1621926997827459  1.177855468001781 -1.310694360819405 0  1.636952961386825 -1.142804819387519 0  0.7464136245425157 -0.6592112539775661 0.464253437432927  0.9590515939106158 -1.078423956001888 0  1.189271625505363 -1.127293779066439 0  0.7450638420349176 -1.620742934143578 1  0.9598730660345802 -1.549077209085725 0.8242980760773153  0.8995443726527385 -1.515344433769769 1  0.9253516653358499 -1.762245407515976 1  1.29264339957742 -0.7108631639275693 0.248925098563288  1.064679695988678 -0.6749731916823414 0  1.119003905466543 -0.9695779869373969 0.2100492968754825  1.576997441744635 -1.215860831449986 0.4767686081794522  1.687870562227536 -1.064497214017714 0.3121204132896461  1.577555788316497 -1.215180484183672 0.2425537263387976  0.4566179955496571 -1.609390190456626 0.6989686505589768  0.4780196499422931 -1.718624147876173 0.4860276821231871  0.4598397724961487 -1.407027747603131 0.4646693967668116  0.6555930567863257 -1.664756582497279 0.5960201095882456  1.080685194586458 -1.202250007878773 1  0.580573651550607 -1.903815473393742 1  0.5734276495182083 -1.711685493650841 0.8245233371918688  0.9720734413444984 -1.373627274294348 0.6790269542916713  0.7381014911438812 -1.022860552606942 0  0.5649892703019659 -1.018153738993141 0.2065824908697158  0.6859686601772466 -1.136244635014237 0.3299139575879882  1.059531587242102 -0.5973251627738123 0.226746809598138  1.023435757713041 -0.8146736758415731 0.3189846134813204  1.297544141558148 -1.005011241379223 0.3189684790296657  0.5832887714184972 -0.8087215957258024 0.4999999999999999  1.000672008306493 -1.113805047495691 0.487632913986857  1.1929972635708 -0.8536914974626655 0.780931025369012  1.284717519815038 -1.02228507292348 0.6703955176972156  1.20351971211937 -1.239767330590945 0.7939120312707418  1.10743765731954 -1.431746180074469 0.8139666446241006  1.206663380515088 -1.269235118192567 0.5803433203994834  0.5031802934273266 -0.8594726184264059 1  0.7739143362555156 -1.072397343309636 1  1.300974086628094 -1.226302537576867 0  1.338534520264107 -1.194150655990213 0.2011991283607386  1.244666982182433 -1.191554482389109 1  1.176003996493655 -1.33611093172008 1  0.8428253757598037 -1.806356628303072 0.7017027633753112  0.6701703609710061 -1.876636608728933 0.7670361119449685  1.251368316581753 -1.54785720178133 0  1.396119646174059 -1.429062855640675 0  0.9633396945064303 -1.532543348225953 0.504411395532755  1.51815861524617 -1.287556148979825 0  1.496956996248435 -0.92836030672711 0.733478808495897  1.486803694599748 -0.9110561600863133 0.4938031200867036  0.8140359668217003 -0.928879231333442 0.4392990111823438  1.173511336853638 -0.9048826654188855 0.4957352355486239  0.4037512339627746 -1.080144681274499 0.7916997388280334  0.5315656042297237 -1.1447348656588 1  1.639622120442623 -0.7656643535348759 0.5754969080455435  1.647316553768361 -0.730739989356719 0.8042598622939813  1.764178512674736 -0.9217350799576589 0.681768998400603  0.9657215264631963 -0.9093291733414921 0  0.609932068791446 -1.364176709429583 1  1.472680754612366 -0.8169236440154841 0.189840841356636  1.773358286409876 -0.9045609312492104 0.2410240474052892  0.5038238211581905 -1.074271211065006 0.5112063182307277  0.4006956025444619 -1.24843802094553 0.6812500201025888  0.7276110770644739 -1.094877295120382 0.6732896863357209  0.4909769421302074 -1.93099433805855 0.7575947101728453  1.38956983664371 -1.075452775247462 1  1.009197349932888 -1.397681489770207 0  0.5007099757113176 -1.928041854600282 0.3180605671254946  0.6868754821181033 -1.871569165629702 0.2684565302298717  0.6868754821181031 -1.871569165629702 0.4985271366456067  1.374638822880307 -0.7269623812337992 0.7816877154595647  1.596035538136801 -0.6475556862479659 1  1.811898498971423 -0.8324572649841648 1  1.576862202356231 -0.8129917743520412 1  0.6936374543645428 -1.490116486267707 0  0.8025770010134894 -1.582936134930714 0.1789258885538291  1.45886869666133 -1.359801123807276 0.2329044500023627  1.323743981377906 -1.488460028711002 0.2983514543155433  0.7571261393854014 -1.588227948599163 0.4034342435924383  0.5105785823554512 -1.583270420542069 0.3212501110323914  0.8191217493535388 -0.9003543932255844 0  0.9108064832199552 -0.7168879053805575 0.1960696744913284  0.5834852897946156 -1.717308399664762 0.1887386398541893  0.8582612650818593 -1.79810597356713 0.2345944512541738  1.023406865707066 -1.709833810979675 0.3360631755621046  0.9134091603486951 -1.768628809422758 0.5063694337812823  0.617899748202294 -1.653792821188109 0  0.7756884647692561 -1.842242054860857 0  1.500447934349236 -0.9696295598465304 1  1.723626336383968 -0.9976028656093712 1  1.304133313638584 -1.504554087798652 0.6818852646335845  1.382549209024781 -1.440199825591361 1  1.237797879432475 -1.558994171732016 1  1.372150915982795 -0.8905933020381092 1  1.447765498390705 -1.373330410045335 0.5014756417954529  1.731901851626541 -0.9821204655507586 0  1.548728803732611 -0.6572481953988726 0.3158315927164428  1.759877105553066 -0.9297824466678363 0.4766530223320761  0.9182578431128523 -0.8646999765548649 1  1.073201216885297 -1.038090295992939 1  1.183469093176923 -0.8848763635278679 1  1.142512612418792 -0.9516293590046008 0  1.109591404263192 -1.393011847861546 0.4362628689155215  1.215386324078908 -1.577386859880171 0.4184832804743677  1.117097531608276 -0.7081609724092219 1  0.7260749200787839 -0.683994037072515 0.2424133430077437  1.038706690905149 -1.45578038790324 1  1.625815991436139 -1.156375256536797 1  1.507021645295484 -1.301126586129103 1  0.49198228108192 -1.930689371821647 0.5229837268563096  1.165552904605024 -1.618284090316855 0.5914719092900202  1.165552904605024 -1.618284090316855 0.7722986199771491  1.090497265961056 -1.673973244928521 1  1.018251277396346 -1.493874823880694 0.1811641159579966  0.9408340653944625 -1.753969892273402 0  0.7862467646240011 -0.6106744323530362 0  1.105979666019669 -1.665697729685947 0  1.679590237761743 -1.079988611500134 0.5913175450030814  0.6027785381133539 -1.359332156263882 0.2124371689903601  0.5587472371219874 -1.203112900522971 0  1.381951970976821 -0.5634760338254743 1  0.7597670703914065 -1.849457744064124 1  1.679590237761742 -1.079988611500134 0.7722204517981226  0.4999697403346577 -1.076876380065217 0  1.17903341878715 -1.607220918238119 0.2399632141173498  0.2713321621710769 -0.9576575710401055 0.4639489892092016  0.2407869516577543 -0.9669233593494102 0.2422811437659894  0.384799343308686 -1.090040125494568 0.2000785832607395  0.4195556527163921 -0.9041709201262842 0.3048123389795397  0.3315216749971926 -0.9393992819363619 0  0.4195556527163921 -0.9041709201262842 0.6951876610204601  0.3833720884367542 -1.248266169376449 0.3125100964111098  1.016841500351821 -1.713343071873639 0.6818852646335847  0.9275246612083399 -0.3706670534361827 0.7592026267743015  0.3070347646120418 -1.231266475456671 1  0.5973730345669322 -1.89871943626909 0  0.8874756245502677 -0.4507903538350485 0  0.3315216749971926 -0.9393992819363619 1  1.575155775830446 -0.7921739152598291 0  </DataArray>
</Points>
<Cells>
[...]
<PointData  Vectors="f_10-0"> 
<DataArray  type="Float64"  Name="f_10-0"  NumberOfComponents="3" format="ascii">1.0600360087180991e-02 -1.1415832396806189e-02 1.2251814881004715e-05  9.4408868894580115e-03 -1.0500061675648893e-02 -5.0903290292207668e-05  9.0572079307019420e-03 -1.0008491025808714e-02 -3.0711134609637025e-04  7.7686887440835770e-03 -9.8410595489865863e-03 -3.5437084605801316e-04  1.2896581072210379e-02 -1.0177464147454717e-02 -3.0571557193837114e-04  1.3171169331528275e-02 -1.0928644995113947e-02 -2.2311056125644809e-05  1.2726707818912161e-02 -1.1050580239286206e-02 -3.7807015340663710e-04  1.3220468371868079e-02 -1.0890241746508780e-02 -2.3433590565869272e-04  1.1922040621584024e-02 -1.2420523821463672e-02 2.7846408616985383e-04  1.3457546124868755e-02 -1.2274521940226621e-02 2.4342545092100046e-04  1.3476202591113345e-02 -1.2906018977424133e-02 5.9727704286530593e-04  1.1928157144535453e-02 -1.1975034049213129e-02 -4.2656014704012638e-05  1.5043396046786981e-02 -1.2423680763055266e-02 3.5122716134274289e-04  1.3366988293397145e-02 -9.6007021697629945e-03 -9.9581530354432267e-06  1.5548876248491005e-02 -1.1191749920057172e-02 -3.8404738044310197e-05  1.5157554323608107e-02 -1.0469496083834190e-02 4.1561965529522790e-04  1.5963049310086755e-02 -1.3410600342632115e-02 9.6953787988176480e-04  1.8596452829738673e-02 -1.2926246863411608e-02 6.7346353758768467e-04  1.9491955848928225e-02 -1.1508187527259593e-02 1.5850854835143722e-03  1.6894929301276951e-02 -1.6656614008918557e-02 2.0812657498508204e-03  1.7490114347435064e-02 -1.5358206331522566e-02 1.0684174216918497e-03  1.8791353941048999e-02 -1.4666323874401331e-02 2.0608474847876226e-03  6.3230311370115677e-03 -9.1366921353506301e-03 -8.8571600423214874e-04  3.6636401118239847e-03 -6.1449437987185652e-03 -7.2129703940818047e-04  6.8410112466107016e-03 -8.8122726232737220e-03 -8.6729729959428346e-04  2.7782186565177575e-03 -5.8252276401679843e-03 -1.1557933864535994e-03  1.8578040711294715e-02 -1.2928107580929632e-02 -6.7839385570606428e-04  1.8939059495683780e-02 -9.5113450434426219e-03 -5.5383996442416573e-04  1.8844265522201174e-02 -9.4168673169092616e-03 -1.2431965099258170e-05  1.4239236365053554e-02 -1.0823579721739232e-02 -4.1707295549565286e-04  1.3306252818407034e-02 -9.9706973694154346e-03 2.3135130914298218e-04  1.3093111028532911e-02 -1.0194642341430294e-02 1.7945665365724173e-04  1.3718404779131147e-02 -1.1194884078915232e-02 5.9896970611414928e-05  1.3737376790695885e-02 -1.7471198093223624e-02 -1.5358930448109661e-03  1.4858886563424097e-02 -1.4044645178100936e-02 -8.0875762193504503e-04  1.6862613819995095e-02 -1.6633108185945270e-02 -2.1060757171455537e-03  1.5157523098262942e-02 -1.6612362691725731e-02 -9.1429697450614309e-04  1.2443137061608175e-02 -1.2539583537787514e-02 -3.7580482142764941e-04  1.3685062044435613e-02 -1.2696424049400955e-02 -4.6580173439073438e-04  1.1575936919765214e-02 -1.1882938101272483e-02 -1.7638849380445201e-04  1.2991731729875835e-02 -1.2327332204121910e-02 -2.1770725750865858e-04  1.1102553183745607e-02 -1.1217160892626669e-02 2.5414328341138659e-05  1.1771350814573233e-02 -1.1855404681731884e-02 -2.8919742093672061e-05  1.5143684981808450e-02 -1.6697603758959095e-02 8.9034066714048868e-04  1.4378673125422363e-02 -1.4132894395209221e-02 8.7691031599003303e-04  1.5290528478550327e-02 -1.4002047450967501e-02 4.4031249810057088e-04  1.2860105352666577e-02 -1.1701935242737497e-02 -2.3897303849278249e-06  1.2487458741049444e-02 -1.1559163468771573e-02 2.4322504863359749e-04  1.2879704815137574e-02 -1.1958433915735001e-02 1.9729388913519171e-04  1.3072672035893185e-02 -9.7440485550555119e-03 8.1178745298920627e-04  1.7679668146764076e-02 -1.4831403148556974e-02 -1.3411248120335519e-04  1.3883217062686800e-02 -1.2939461289046031e-02 -7.2827485483464697e-04  1.3748065792855245e-02 -1.2052278598942857e-02 -2.0776536670639748e-04  8.1386443737935035e-03 -9.6537627057103042e-03 -7.9931538565280590e-04  1.0227102697372705e-02 -1.0756796884846308e-02 -4.0556508047826043e-04  1.0209101651223903e-02 -1.1004609109861225e-02 -5.2691464971611356e-04  8.2228190266370564e-03 -9.9451754901379689e-03 -1.0434602568778228e-03  1.3541040999810530e-02 -9.7984454089410280e-03 -1.8230782640115827e-04  1.5788434247921698e-02 -1.1732969976065493e-02 -1.0953286630376593e-03  1.4130398922421517e-02 -1.2009686476500265e-02 -4.0329579742531352e-04  1.2830313688011279e-02 -1.0061728593367599e-02 8.7252649009861429e-07  1.2433909181463127e-02 -8.7854160423453051e-03 2.6813868966313049e-04  1.2916876882905154e-02 -1.0154445163299072e-02 3.5902251842802975e-04  5.5505259082184802e-03 -7.7362646215653717e-03 -4.1892590421740587e-04  4.9318429670842804e-03 -6.9683793845075207e-03 9.3299812284469561e-06  7.1746466864106850e-03 -9.5840922671460143e-03 3.6856318278414753e-05  7.0100808880442962e-03 -8.5213182163183711e-03 -1.9152471182334475e-04  1.3318867245852599e-02 -1.2335271961724216e-02 1.6745050950241135e-04  4.2108181254418035e-03 -6.8152390395040180e-03 -1.1573304838349324e-03  5.8919133919627473e-03 -7.7804999416888664e-03 -6.5546963795230404e-04  1.1585709919254101e-02 -1.1426123425616939e-02 -7.1577788356273840e-05  1.3677966662028760e-02 -1.3987677950747636e-02 -1.0678647680772205e-03  1.2483049823124688e-02 -1.4173505091469585e-02 -5.4312395870650270e-04  1.2055507035551232e-02 -1.2725915439927123e-02 -2.2732939623394820e-04  1.5603144179632314e-02 -1.1144195430027159e-02 -5.7739566747990725e-04  1.5032094838322914e-02 -1.2373105706202620e-02 -4.3527357439290045e-04  1.3503888694192959e-02 -1.1023038318083107e-02 -7.8285042574381805e-05  1.5070369350356758e-02 -1.6439189077656749e-02 8.0132958378381942e-06  1.3394195643370452e-02 -1.2259695443658087e-02 -4.3802398605471613e-05  1.4160696836622858e-02 -1.1314939801708722e-02 3.1769802077190627e-04  1.3512998756195108e-02 -1.1133990929840123e-02 2.6165787453945055e-05  1.3040889937517721e-02 -1.1688331408035199e-02 -7.7742363788234036e-05  1.1790195179997154e-02 -1.1452382042385831e-02 -2.8567289872103959e-04  1.2808680639354923e-02 -1.1536287549540027e-02 -5.3847270084460711e-05  1.3761175895991531e-02 -1.7482196188595697e-02 1.4592780335273062e-03  1.3361228569637468e-02 -1.3539956962127611e-02 8.6751587081471192e-04  1.3381603486771755e-02 -1.1667382124489740e-02 2.5348617680896187e-04  1.3193806839000538e-02 -1.1244339960427651e-02 1.2425810095321487e-04  1.3539593635842945e-02 -1.1871268994582535e-02 -1.1630108143185697e-04  1.2754063905611051e-02 -1.1929914059163618e-02 -3.1966048950440808e-04  7.1774195620784289e-03 -8.9407850138807921e-03 -4.5012051910655985e-04  5.2286032760151249e-03 -7.4617582414967043e-03 -6.2305380727806583e-04  1.1711736575513661e-02 -1.1588661920624610e-02 7.6752254981868480e-04  1.2735415317658020e-02 -1.1530618619116905e-02 7.5615541233537168e-04  1.0304990847197678e-02 -1.0686703719527393e-02 -3.1443845043204916e-05  1.3235101300517233e-02 -1.0936547863222019e-02 7.4634721041404043e-04  1.2787645481672195e-02 -9.5171813619690081e-03 -1.7489196184757272e-04  1.2710223916282449e-02 -9.4372458814624745e-03 -2.3706852597231103e-05  1.4569958438324633e-02 -1.3627574501519203e-02 -1.7255117306440507e-04  1.4041998448715160e-02 -1.1484671585034507e-02 -2.5193950043009724e-05  9.6692060717046922e-03 -1.3816068371360972e-02 1.2735348055072315e-04  1.0548747342356866e-02 -1.3187611950363302e-02 3.3918643636110030e-04  1.1377163851768207e-02 -7.3918281740829681e-03 -1.1912215270888741e-04  1.1261098010856042e-02 -7.1397544748210591e-03 -3.9438859828250163e-04  1.1643744061146618e-02 -7.3916205242822016e-03 -3.5329741417862085e-04  1.5101312136374787e-02 -1.3195360184181423e-02 -1.1697124841937526e-03  9.1570476591276706e-03 -1.0997012329029094e-02 -3.0650682601659964e-04  1.2646983230684441e-02 -9.1002055574908661e-03 1.1475941106129940e-04  1.1561181987754016e-02 -7.2282671197373364e-03 4.1824133514842726e-04  1.1159248641514090e-02 -1.3587177659368434e-02 5.3711073265369365e-06  7.8414844994626771e-03 -1.1303406774066101e-02 -1.3435222946981521e-04  1.2735954009162770e-02 -1.3026880906034424e-02 2.7937720170438950e-04  3.3319246369357125e-03 -5.8474727812186005e-03 -6.1332308391664136e-04  1.3630526157691796e-02 -1.1015206903880834e-02 -2.4853790453131932e-04  1.1745537796469164e-02 -1.1763187045184743e-02 2.2973984434288946e-04  3.4242719157863361e-03 -5.8842668962062958e-03 3.9589144638229928e-04  5.3918472828032894e-03 -7.5913726666382922e-03 4.7423872642875258e-04  5.3856698522421155e-03 -7.5427619911485290e-03 -2.0937442823997228e-05  1.3003979044196324e-02 -9.2674931931603071e-03 8.7508501187275573e-06  1.1338816212906623e-02 -6.9068534079863410e-03 -5.5696062046123025e-04  1.1236178391494933e-02 -6.4604315121276771e-03 -9.8425491625236537e-04  1.2353338448373719e-02 -8.3770237829258465e-03 -5.2838705992068252e-04  8.8048681693317695e-03 -1.0270762924716183e-02 4.8758316806344422e-04  8.8946806313662443e-03 -9.9321019263137605e-03 3.9107445404744286e-04  1.2762912842377074e-02 -1.1006081055322666e-02 3.4868158062966278e-04  1.2029683047562363e-02 -1.1262391246091855e-02 2.6034418393889257e-04  8.4933442029580461e-03 -9.5711854853984014e-03 1.0107852954884452e-04  6.3099024665738334e-03 -8.2470458258715549e-03 3.0062577178712331e-04  1.5193114227178383e-02 -1.4224069600656437e-02 -1.4165975244072404e-03  1.6220848569733111e-02 -1.3264560045311943e-02 -9.7304532887989984e-04  5.9169945409798192e-03 -7.7878327328201038e-03 5.8258937527309938e-04  7.3548552058175405e-03 -9.0939441955512693e-03 5.0937110042095898e-04  9.2136405225221821e-03 -1.0255332845059017e-02 2.6220797435193689e-04  7.9933139954324779e-03 -9.4683338382803937e-03 -4.7490137620524163e-05  6.7092346470086234e-03 -8.6249479116951976e-03 8.6720299044724307e-04  6.3314569212992652e-03 -8.5967278829459787e-03 1.0588786998612237e-03  1.3212369093772902e-02 -9.8789784811185565e-03 -4.3646248474057893e-04  1.2497977861406663e-02 -8.3864086942810057e-03 -9.3776702779581756e-04  1.1905316838203516e-02 -1.1273019105404132e-02 -3.0198367084112448e-04  1.2703372729029676e-02 -1.1587414853272221e-02 -8.1949587383271512e-04  1.1606558236901350e-02 -1.1573227017505764e-02 -8.7390277587507206e-04  1.3655201317136286e-02 -1.0393356447650741e-02 -1.0392180490499913e-06  1.2680346574454293e-02 -1.0971048646917210e-02 -3.7592984872376316e-05  1.2390479787991423e-02 -8.2126460196745715e-03 8.4270886389399623e-04  1.1422252104920505e-02 -7.3077520492230109e-03 1.2991535674195662e-04  1.1659273028769408e-02 -7.4498599160612413e-03 1.6695718655975809e-05  1.5505217710988792e-02 -1.3598617133003798e-02 1.2904131096253435e-03  1.4225632164194996e-02 -1.2551886290086104e-02 6.1014067744275349e-04  1.4534904315385896e-02 -1.1708681297384217e-02 5.4386614620921027e-04  1.4470393469679254e-02 -1.2114704774951137e-02 -6.1283919188715970e-04  1.1941454467125016e-02 -1.1412026847203164e-02 8.6611240967420620e-06  1.1112526905400469e-02 -1.1070133605882861e-02 8.3949941801907666e-05  1.5322150898722122e-02 -1.1410108615009944e-02 8.8630473991318094e-04  1.7463846390368482e-02 -1.5358882492459942e-02 -1.0750622742299446e-03  1.1468969020264777e-02 -1.1597963659887744e-02 -4.5881048969701501e-04  1.3158181990471793e-02 -9.8988730294280510e-03 -8.6867542682689616e-04  1.3236721209047769e-02 -1.1028730477077694e-02 -8.2632562080675966e-04  3.3350554752603623e-03 -5.7782669696694313e-03 -8.3224339976422043e-05  1.0669845996866933e-02 -1.0937181784493910e-02 -1.9059111924126117e-04  1.0692403204893085e-02 -1.1020113730502755e-02 -4.8395667991822812e-04  1.0044141578985671e-02 -1.0988146033509229e-02 -9.5293032905308399e-04  1.0942613317039957e-02 -1.1109701565692970e-02 2.7181117154455526e-04  8.3925597768198853e-03 -1.0048457628659814e-02 9.3738511252529778e-04  1.8769953707248651e-02 -1.4621294595324862e-02 -2.0605644352889251e-03  1.0159058853828742e-02 -1.1017029258861081e-02 8.7837869939313344e-04  1.2472459052389494e-02 -8.9005277845639434e-03 -1.8495478150308726e-04  9.1868536411237166e-03 -1.0688419341260727e-02 1.2194519396135286e-04  1.0194427016854567e-02 -1.2493693816933681e-02 -1.5852086565523051e-04  1.2780644666593167e-02 -7.8242090914049794e-03 -1.1708563137125322e-04  6.1580886625669535e-03 -8.4774748952472379e-03 -1.1385016411300422e-03  1.2537102965864437e-02 -8.9618918380034475e-03 -4.9160514053580141e-04  1.0890382947398334e-02 -1.4083285884964603e-02 -5.1105467811445070e-04  1.0822863793652169e-02 -1.1060370662033768e-02 3.8633104617200314e-04  7.9455522950850552e-03 -1.7042767366393239e-02 3.0029893856094455e-06  7.0252005484951119e-03 -1.7036306095302003e-02 1.2690830420900237e-04  9.2532210542580814e-03 -1.3683274095386631e-02 -7.5798988397747635e-05  1.1627724723122306e-02 -1.7084985669532149e-02 -3.2845242022156487e-04  9.3509242072723087e-03 -1.7548562685994827e-02 -5.2617462945047863e-04  1.1733561988926817e-02 -1.7018564475711605e-02 3.2409798789118094e-04  7.5843399913347008e-03 -1.1280068076411446e-02 1.5099458995612941e-04  9.1470465910365156e-03 -1.0205906908456533e-02 -3.5503221395938750e-04  1.9019295651797653e-02 -9.4961662302212244e-03 5.1563576213296055e-04  6.3015715427214257e-03 -1.1754990667710772e-02 -6.8988728238951328e-04  4.3555663319675923e-03 -6.9433399477374777e-03 1.0932644563050628e-03  1.9528911749410072e-02 -1.1475615584112012e-02 -1.5875518851051404e-03  9.3973550433956166e-03 -1.7548637267864996e-02 4.8367244854975093e-04  1.2246940541317518e-02 -8.2240969548298248e-03 4.6525049042381143e-04  </DataArray> 
</PointData> 
</Piece>
</UnstructuredGrid>
</VTKFile>