<?xml version="1.0"?>
<VTKFile type="UnstructuredGrid"  version="0.1"  >
<UnstructuredGrid>
<Piece  NumberOfPoints="190" NumberOfCells="679">
<Points>
<DataArray  type="Float64"  NumberOfComponents="3"  format="ascii">-1.146527028962373 1.167114312334814 0  -0.9184143406250429 1.15951227012599 0.181890248271007  -1.117408632183515 1.349324948359656 0  -1.127667895979856 1.429138092744414 0.1957268739948787  -0.843554369120634 1.571972381406213 0.1893355977975628  -1.023406865707073 1.709833810979671 0  -1.105932760739799 1.665722801080373 0.2684407995307424  -0.6404454764412717 1.557452185064736 0.3229483011552194  -0.6049140089552396 1.896431906697228 0.3184572261395962  -0.5174396855537765 1.720603924206695 0.4455678853971146  -0.6789195424108355 1.679413385346867 0.172716471184192  -1.297015254039048 1.200330857140984 0.198215552709849  -1.513321347298536 1.293450377028231 0.318300028577906  -1.577555788316503 1.215180484183664 0  -1.466118612717564 1.06068664004738 0.1854634457573004  -1.417954567522155 0.9826958282046394 0  -1.687765770332819 1.064693265863353 0  -1.776037932920274 0.899547665238146 0  -1.538403791801157 0.8564673244602555 0.1943213337786517  -0.3365162964824625 0.9378841800729312 0.2405432884014713  -0.4415185705098927 1.234655578466227 0.3250771953421422  -0.5209854872342006 1.060897459510266 0.207962911636449  -0.3313057231869522 0.9394647902018173 0.5  -1.264272254491768 1.537267213620411 0.5235172542791873  -1.237771957270619 1.559015445500463 0.7085720153548473  -1.382377160656424 1.440341022038268 0.687926620973708  -1.192571215110794 1.302722308512609 0.4782864723562278  -0.8092614669963184 1.031632698922229 0.6791456875279881  -0.747028838074304 0.9125730243322504 0.8266226570201092  -0.984599909939442 1.149923132667671 0.7848661116286425  -0.9141816130997213 0.7634549129288799 0.8251041360935342  -0.867837335236696 0.8425368172721063 0.5309559614124686  -0.6564424890631831 0.7486858911845402 0.7578281535473971  -0.631840153311841 0.7688765063405124 0.5362539270910898  -0.688391004567446 1.30457807950404 0.2279694399321673  -0.632518690427178 1.508037302070591 0  -0.5246326138228607 1.437575172319297 0.1874291779963437  -1.162812384258729 0.869959537678654 0.1967137241630482  -1.098472765100997 1.059915202872253 0.2606957431243106  -1.34993589569112 0.9730419110075272 0.3324974874943423  -0.786137885070551 0.6108071024727797 0.5  -1.027957718484444 0.807486031122658 0.3458033622348064  -1.052829203020905 0.5589047274949172 0.5085767754743842  -1.190015801986949 0.4859549610262058 0.2855300420029705  -1.156663002991701 0.588550599634463 0  -1.391582474002526 0.487267687798005 0.2096997911392877  -1.351229656953599 0.5151732646136987 0  -0.7757759682718035 1.842195283264311 0.2279005027763657  -0.7757759682718033 1.842195283264311 0.409013949502827  -0.502990862578652 0.859573871324515 0.3047494630173089  -1.061606909442319 0.9785837600988989 0  -1.315004706961013 0.6972167789990056 0.7557377227898123  -1.232115836721338 0.7631644816213363 1  -1.341896336811819 0.9405672826140373 1  -1.519741993526035 0.8886244139057863 1  -0.686969743987339 1.871540571604279 0  -0.7259496343859416 0.6841466981309493 1  -1.026493956220598 0.7984228743741494 1  -0.8426708147520899 0.5346142571826912 1  -1.24261630433174 0.4137133052539228 0.6762314288941822  -0.88740992893716 0.4509132616824052 0.6953011277941856  -0.947388990623786 0.3051831352366393 0.5363564105802381  -0.3992359231948405 1.264547218604192 0.6584240094702515  -0.5717031409302165 1.095411659227544 0.7615148223574963  -0.5307010043682088 1.3826952685512 0.785767467294626  -0.729538575546018 1.293711139943365 0.7838102578313236  -0.7951415571745835 1.035950760589855 0.3163792525461149  -0.7096214621866395 1.292436199645492 0.5012219118924913  -0.9057171194088783 1.167072336234832 0.4757488249981465  -0.5897572390507918 1.041671125967472 0.5035706790610246  -1.314905435161327 0.6745560659922012 0.4904638895724882  -1.082991713996318 0.5611808793048219 0.7692622717403119  -1.059160609976377 0.7755841138468872 0.6725939498558352  -0.8710834293743044 1.505323501426417 0.4555006884842235  -1.105932760739799 1.665722801080372 0.4985114786665089  -0.8055581621776347 1.507858556983968 0.6786829354555336  -0.9261071527929903 1.761841591057063 0.523708165574422  -0.9290527823196455 0.3656295132424565 1  -1.257212323284817 1.543061149426666 0.3183000285779041  -1.323743981377913 1.488460028710997 0  -1.395988323856183 1.429170629081718 0.2278152199502795  -0.9341416419748636 1.757547067117675 0.3184572261395966  -0.9856468025470075 1.360627069214379 0.677554604785177  -1.201967891204917 0.876419588486421 0.481981018650006  -1.109788677070211 1.078120207642546 0.5482802068902228  -1.43290247623816 1.102502474805115 0.8016223533815361  -1.625681761742057 1.156538815892274 0.729852265836384  -1.382702032230889 0.9409546224454185 0.6727156764281601  -1.723626336383972 0.9976028656093632 0.7650330778500383  -1.308120441486432 0.7203201397046752 0.2251752624482485  -1.234622620676914 0.8484318635280916 0  -1.49971092276425 0.6607539289614928 0  -1.358753583540909 0.4331344014522989 0.4586164123344102  -1.557364917173048 0.7833533360165803 0.4519990588587856  -1.501461285193593 0.980762205338028 0.5025361493182261  -0.7120164604963927 1.653427389927467 0.5133392593030189  -0.6072692169943243 1.895717462149367 0.5362964439456972  -0.829538772807962 1.24650646003822 0  -1.155399090771521 0.9863986739672237 0.7842371480028336  -0.6715976806087487 0.9382906322624599 0.2026049840720276  -1.735554095143283 0.9752875985231242 0.3176742093519687  -1.820074272553177 0.8171614684481179 0.2274378431626041  -1.50754886084441 1.300484172123991 0.5233657346304179  -1.503511147564677 1.30540413999066 0.759039402697864  -1.566418818365817 1.228750921332943 1  -0.5831223326863202 0.8088581884632724 0  -0.7259496343859416 0.6841466981309493 0  -0.8777650763659706 0.8392187700021254 0.1791968347231586  -1.08750656824373 1.473373412162729 0.4186198326001243  -1.447624472225162 1.37350225092525 1  -0.836286829552076 0.9546547382372724 1  -1.598442001919816 0.8131212705610243 0.8005177185861571  -1.7677624176777 0.9150300652967593 1  -1.679490255090245 1.080175665921967 1  -1.001523373036278 1.311368911517147 0.3182110729693932  -0.9546612534662056 1.436284063075672 0  -1.081385764646495 1.38355427730711 1  -1.215281538736748 1.23842223823042 0.7322010707000174  -1.090347441409376 1.674053327819833 0.7298514348497547  -0.9253516653358563 1.762245407515972 0.7647596514128244  -0.6561306764426973 1.122404365790671 1  -0.5831223326863202 0.8088581884632724 1  -1.033708622788163 1.501105289131701 0.8095881280656126  -0.8326984114354637 1.541357275927116 1  -1.65956562518322 0.6779485992594181 0.1896533736052345  -0.859137602666504 1.164403067154992 1  -0.3346493386806206 1.523066756827354 0.432978452806852  -0.4252082943158828 1.690757594369593 0.2517423600102111  -1.157675661796024 0.2874316557483794 0.8237284357888865  -1.132192252194075 0.5760415911141321 1  -1.250327345612778 0.359966722685725 1  -0.6564424890631833 0.7486858911845402 0.2421718464526029  -1.015880871007985 0.6194584810981399 0.2107616280594863  -0.88740992893716 0.4509132616824052 0.3046988722058144  -1.341242197725124 1.124251621324452 1  -1.570108367541714 0.5323200146201426 0.3214131146464111  -1.395988323856182 1.429170629081719 0.4087848372055307  -1.460830652517014 1.031080833577986 1  -0.4431978912794227 1.258461435479526 0  -0.8426708147520899 0.5346142571826912 0  -1.003191405728223 0.7802335023438158 0  -1.111399709213698 0.3143340114943649 0.3936982570693697  -0.3525296771925283 1.668146412112005 0  -0.5077763251465404 1.925898300933896 0  -0.8582612650818664 1.798105973567126 0  -1.564690195006766 0.6196325639107423 0.6892222911693506  -1.007924465648459 1.718109326222245 1  -1.044995883534605 1.072574953573793 1  -0.510994707505987 1.404217254440446 0.5163700951909265  -0.9566144206959937 0.2747709680011161 0.7579149180877363  -1.346016855126876 1.122799247643388 0.5201991910084716  -1.739883507367786 0.9671878379506875 0.5226731680922776  -1.811833783889858 0.8325783383860297 0.6875310263852326  -1.198818116171656 1.24025052295321 1  -1.310173544228634 1.499596998661683 1  -0.7896033500135112 0.6065844212219812 0.7595504241117756  -0.5790841934569149 1.560047235753897 0.6688754989314865  -0.4193563900796843 0.9042774282245836 0  -0.502990862578652 0.859573871324515 0.6952505369826911  -1.857951139271881 0.7317680986975148 0  -0.9819498088636408 0.1832666661363625 1  -1.458761442175848 1.359931813775971 0  -0.9290527823196455 0.3656295132424565 0  -0.6409506341987898 1.096351193148543 0  -1.370317109984933 0.6068829405856371 1  -1.636811764939919 1.142976867755874 0.2684766850732475  -0.854850831960664 0.9759153804258832 0  -1.178992651785606 1.607254374851652 0  -0.5702152500099751 1.383891866592444 1  -0.4213746699951029 1.196244977459891 1  -0.2405674396764836 0.9669899475809407 0  -0.3177026153873686 1.177369199564174 0  -1.573062635283103 0.710522813525687 1  -0.8967436892907179 1.368269408810351 1  -0.7036168792142508 1.675069862734098 0.8042164232910654  -0.8427788650232531 1.8063814888097 1  -0.7827528258206699 0.6149318091030841 0.3055073908801145  -0.6560191600603796 1.594701905386204 1  -0.9772470823615382 1.495419026301591 1  -1.165422214636327 1.618391344802338 1  -0.5821061254012698 1.903350602533428 0.7233926634179388  -0.6701703609710137 1.87663660872893 1  -0.7597161751969241 1.849473182952581 0.6880608757141868  -1.636811764939919 1.142976867755873 0.4985204057412241  -1.663935857491406 0.5750728785195803 0  -1.222473603421901 0.3518873350067027 0  -0.9566144206959937 0.2747709680011161 0.2420850819122637  -1.820074272553176 0.817161468448121 0.4079105755413405  -0.4193563900796843 0.9042774282245836 1  -1.46295663988695 0.3280486082887119 0  </DataArray>
</Points>
<Cells>
[...]
<PointData  Vectors="f_10-0"> 
<DataArray  type="Float64"  Name="f_10-0"  NumberOfComponents="3" format="ascii">-1.3701978933253010e-02 1.2483289138548417e-02 -1.0853625432155559e-04  -1.3129486977759088e-02 1.2715867393232563e-02 -2.9709090097371590e-04  -1.2626328657221344e-02 1.2239449948969246e-02 2.8376542268445791e-04  -1.1975472814943291e-02 1.1744452903721092e-02 3.0449124152927325e-04  -9.4242911195742581e-03 1.0475755910909709e-02 4.2764427156647528e-04  -9.4720935740051707e-03 1.0899419949270185e-02 9.8314761782780430e-04  -1.0154890871575980e-02 1.1006152587036725e-02 4.5282226269290890e-04  -7.9092983551832356e-03 9.4825388789423638e-03 2.8578193167598070e-04  -4.6688260294667373e-03 7.1447044612624249e-03 4.5457893361458166e-04  -5.4394563312113470e-03 7.5392229199404857e-03 1.5659748907918432e-04  -7.2151377031004476e-03 8.9658270569819842e-03 6.2153954895279940e-04  -1.3322744689379214e-02 1.1704162856772353e-02 1.6939528653423666e-04  -1.2999412971497752e-02 1.0966427976604725e-02 3.2539322098366604e-04  -1.3369993198829123e-02 1.0694873562221220e-02 8.7090468231096438e-04  -1.3236017839833612e-02 1.0602806094363509e-02 3.0829208620661899e-04  -1.3649127592741480e-02 1.0780556635598909e-02 2.5521260559656768e-04  -1.2926376845372799e-02 9.3149125857428777e-03 9.4737070193153113e-04  -1.1945903689105650e-02 7.5794016551650198e-03 9.8301025299287153e-04  -1.2543536154726882e-02 9.1481593213445303e-03 3.1323659691920807e-04  -9.7700007789915735e-03 1.7476081616375507e-02 -1.3422705115604807e-04  -8.6897438834193392e-03 1.1864345516384758e-02 1.1193761244057808e-04  -1.1676933663025298e-02 1.4065519203075310e-02 -3.2801678073664296e-04  -9.6547281690077692e-03 1.7331504850155482e-02 3.7494242441938518e-05  -1.1663442181283798e-02 1.1499138719393594e-02 1.1324003286180314e-05  -1.1484338404077522e-02 1.1519549235673117e-02 -2.6206593501783211e-04  -1.2452263933367765e-02 1.1495950041012972e-02 -1.9867048886480028e-04  -1.2749230145838663e-02 1.1822080246987672e-02 7.5062628435645178e-05  -1.3794630830551978e-02 1.3530937497120855e-02 4.2553788809836284e-04  -1.4906507589926879e-02 1.4549345697462355e-02 9.9794244191452031e-04  -1.3339829404841222e-02 1.2601778204812437e-02 3.5260486251827557e-04  -1.6026518137483261e-02 1.3652407170993345e-02 1.0196910322428094e-03  -1.5436497269403151e-02 1.3802786256371935e-02 1.4873468124571737e-04  -1.6610606696901203e-02 1.6387830902165876e-02 1.0248189160333141e-03  -1.6039760679588205e-02 1.6474872951247464e-02 1.6873862877850323e-04  -1.0621004577537304e-02 1.1684492112540979e-02 1.9402842092130176e-05  -8.2344097116104891e-03 1.0134042391000686e-02 6.6285880835910578e-04  -7.8241030312049924e-03 9.9553059746145100e-03 4.2779745332334918e-04  -1.4411126448393952e-02 1.1868854179719180e-02 -3.4830734229102399e-04  -1.3879482564073986e-02 1.2374370700444531e-02 -1.9583499493889159e-04  -1.3458118508528016e-02 1.0912208089847119e-02 5.6835380161227158e-05  -1.8168759081296636e-02 1.4399866660127540e-02 7.4813063226025127e-05  -1.5162085682280071e-02 1.2605160626333713e-02 -2.8400056429634372e-04  -1.5818938984817826e-02 1.1159938287460971e-02 8.5953053183652301e-05  -1.4389710696524297e-02 9.0170218806895856e-03 -9.5319103703254575e-05  -1.5170401222871145e-02 1.0378438868918361e-02 -5.9302824188330701e-04  -1.2189793661546350e-02 7.2697130047117229e-03 2.0266066123954913e-04  -1.3013779704118999e-02 7.8367579403487674e-03 1.6522247223842311e-04  -6.4766953558430115e-03 8.6710541695715418e-03 6.2773703632536943e-04  -6.4861738045231309e-03 8.6064064370605167e-03 2.4269441206961989e-04  -1.3664751599247835e-02 1.7218961921314196e-02 -4.3854033468750098e-04  -1.4637073990655856e-02 1.2891653838442140e-02 -7.0954119619299550e-04  -1.3467909233161338e-02 9.8296338295950098e-03 2.0372203542890277e-04  -1.4507285489505093e-02 1.1019735872247671e-02 5.7762577506834708e-04  -1.3901708659527903e-02 1.1118631366063142e-02 1.4798298381969851e-04  -1.3034466001118754e-02 9.6004610653989998e-03 -3.0146817037354963e-04  -5.4971777140798367e-03 8.1034463285709936e-03 1.1666786538157767e-03  -1.7983906936589938e-02 1.6042496920995110e-02 2.0707876969292380e-03  -1.5609787529366089e-02 1.2902466365455421e-02 1.1872907081529526e-03  -1.9192598973709243e-02 1.3448188380560709e-02 1.7567401623638393e-03  -1.3635872859173377e-02 7.6744447582208549e-03 9.4254752439788003e-05  -1.8985521207574921e-02 1.1647613919181447e-02 5.3610618804312258e-04  -1.9024550856771585e-02 8.2458738243465519e-03 1.2125308351251708e-04  -7.7932643285057290e-03 1.1388570264365912e-02 -9.0395775941417718e-05  -1.1739305769225567e-02 1.3580676790864016e-02 3.7193973729867340e-04  -8.3544831293566098e-03 1.0522214724692724e-02 -2.0574532733183562e-04  -1.0999132121974845e-02 1.1877394151929071e-02 1.3421786070269920e-04  -1.3724994521263982e-02 1.3519151876615319e-02 -3.2158382979497531e-04  -1.0830130938971654e-02 1.1740675948720030e-02 5.5853894258646458e-05  -1.2931204679144747e-02 1.2563485650515589e-02 2.9348415238376243e-05  -1.2527225452825308e-02 1.4046827904254594e-02 5.0586184280372401e-05  -1.3356441480197663e-02 9.6152307568478489e-03 6.4854847639868953e-05  -1.5569512683497421e-02 1.0905930218416357e-02 5.3395727430585662e-04  -1.5161309821837448e-02 1.2277096473993734e-02 4.4677943215281680e-04  -1.0100164572689301e-02 1.0811664212486279e-02 1.0086827766164523e-04  -1.0112708749426469e-02 1.0936523974521804e-02 4.8238541628822286e-05  -9.6574975137613522e-03 1.0588166848470443e-02 -1.0977563303408975e-04  -8.2725493908657639e-03 9.8574108158460509e-03 8.9844061739860626e-06  -1.9473793801371576e-02 9.6676764314955390e-03 9.8934859621013804e-04  -1.1636933670550251e-02 1.1519700836199355e-02 3.2033547047970542e-04  -1.2444568766116011e-02 1.1927288321431129e-02 8.3078787882629823e-04  -1.2595093272401268e-02 1.1530928330785260e-02 4.7333780667770673e-04  -8.3707288507227327e-03 9.9631519386862780e-03 3.8565577389231372e-04  -1.1849173200534753e-02 1.1789547189497835e-02 2.4395020025621738e-05  -1.4097489854721987e-02 1.1512338266991820e-02 4.0476962937035824e-05  -1.3730768680424704e-02 1.2262433792736033e-02 1.1181747801293607e-04  -1.3300345405334483e-02 1.0931095784920479e-02 -1.3293409847065294e-04  -1.2882760611540221e-02 9.9554467416478210e-03 -2.8013318100951912e-04  -1.3337913824871138e-02 1.0610995908096360e-02 6.5679223111046774e-05  -1.2270194711499890e-02 8.5246827227543724e-03 -3.7034404421290205e-04  -1.3582095927055973e-02 1.0049032239704742e-02 -8.1851981414413007e-05  -1.4447531859604358e-02 1.1431827285998165e-02 -3.6331604800842143e-04  -1.2272693739882828e-02 8.0885443730036952e-03 3.9755540579786001e-04  -1.2238797821901813e-02 6.8884380618973581e-03 9.0824442494174057e-05  -1.2045598564361666e-02 8.4708439090378333e-03 1.1633659437944077e-04  -1.2904803018959696e-02 9.9742332157473513e-03 7.0903233769439538e-05  -7.6945548372422852e-03 9.2149604640770523e-03 2.7701677393120828e-05  -4.6868963110622604e-03 7.1332969892552211e-03 -3.8618173505026734e-05  -1.2135317223596401e-02 1.2663036836850126e-02 -2.1516600841943020e-04  -1.4090417300736197e-02 1.2144848103493195e-02 3.8358023331272375e-04  -1.4332560811832137e-02 1.4751388987624412e-02 -7.2570396057075842e-04  -1.2097396192404530e-02 8.2680401025908255e-03 3.7017787586764676e-04  -1.0960940853254034e-02 6.5095676583110523e-03 5.7114323193579498e-04  -1.2910280435525267e-02 1.0943352681342057e-02 2.6475596560765437e-05  -1.3004294972999932e-02 1.1069442475342459e-02 -3.1828267011658573e-04  -1.3361151491856746e-02 1.0809915380408186e-02 -7.4533752472539334e-04  -1.5580131627996855e-02 1.7390215308805093e-02 -1.6959266483091411e-03  -1.8028480950957427e-02 1.6034111239822384e-02 -1.9609580001678328e-03  -1.5597160715262369e-02 1.3885638979856094e-02 -8.5440060854813902e-04  -1.1439498346321703e-02 1.1454877355314762e-02 1.2959643358693686e-04  -1.3143623650728424e-02 1.1674836303574307e-02 -7.0286774499669132e-04  -1.4826388947162551e-02 1.4196627216003677e-02 1.2786962488388184e-03  -1.2047416978082034e-02 8.4164905281616156e-03 -2.2848343709147613e-04  -1.2032405324358991e-02 7.7651510960668876e-03 -8.4899076942130053e-04  -1.2981073143068877e-02 9.4684052618691159e-03 -7.8897548115195847e-04  -1.2241590121770937e-02 1.1956646497010523e-02 4.1228424290945713e-05  -1.1294409122307482e-02 1.1811744666839973e-02 3.5137685894286782e-04  -1.2271064576606552e-02 1.2172802900321732e-02 -1.9246386549616048e-04  -1.3121256609423973e-02 1.1912635913434973e-02 3.1497911833907561e-05  -9.9963602395682621e-03 1.0935129266374017e-02 -3.2469817946866741e-04  -8.2790872373469087e-03 9.9552200774803059e-03 -4.6000308230015698e-04  -1.2134067041159033e-02 1.3654764723011697e-02 7.1593062055808369e-04  -1.5484516983909008e-02 1.7485451304174397e-02 1.7944265447043051e-03  -1.1078076902043869e-02 1.1408698001468957e-02 -2.4691734521783011e-04  -9.6230527987904279e-03 1.0885679949976952e-02 -5.1991143062269393e-04  -1.0984322118914839e-02 6.9145693685009951e-03 4.6108252916173963e-04  -1.3006990041953572e-02 1.3148168461390896e-02 6.0510966247241942e-04  -4.8678616088954230e-03 8.1302113229726417e-03 1.9163581410621425e-04  -4.7497669457322589e-03 7.2216941358175090e-03 5.7632089045036770e-04  -1.4822793924925701e-02 6.5022383659575043e-03 1.5313002946070004e-05  -1.5394973642863250e-02 1.0520363497759928e-02 7.6826008629034086e-04  -1.3739078387707366e-02 6.7556928320224889e-03 -6.6295315942844777e-05  -1.6657033806957822e-02 1.6337882683635625e-02 -9.0404865353407035e-04  -1.6066607777956814e-02 1.2061218820080391e-02 -6.0403373670742371e-04  -1.9039778446430320e-02 1.1534332659777328e-02 -4.2448740658537635e-04  -1.3741291545129425e-02 1.1683739702419177e-02 -1.0514118814406191e-04  -1.0703290542934387e-02 6.3179684329502262e-03 2.6570952506435006e-04  -1.2495521224599657e-02 1.1434281730570045e-02 2.0419144065125694e-04  -1.3516593939652528e-02 1.0710381790858424e-02 -2.9344139281339002e-04  -8.3177654740623809e-03 1.1915633299505643e-02 3.5191745322498010e-04  -1.9193500281000066e-02 1.3493147050514603e-02 -1.6152104401034035e-03  -1.5841470330938648e-02 1.3032894257916651e-02 -1.1627862715434117e-03  -1.5528694825511568e-02 7.2972485366705510e-03 2.3641912341067609e-05  -4.0503029146981718e-03 7.0970356451396186e-03 1.1651515851892797e-03  -3.5726139785561416e-03 6.4105422283799616e-03 1.1434805827524072e-03  -7.5234925932425034e-03 9.6831314923606342e-03 1.0738781870069801e-03  -1.1245243569121811e-02 7.1709396266906250e-03 -8.9647865843568220e-05  -9.2755793985649405e-03 1.0813691037279071e-02 -8.8638026033732752e-04  -1.4126558184051981e-02 1.2937820006913294e-02 6.3560514040831640e-04  -7.9233716601822910e-03 1.0137457588668063e-02 3.4205993368793874e-05  -1.9108210776264008e-02 7.4845683977728525e-03 2.2533685033905413e-04  -1.3317635613050150e-02 1.1293385282177493e-02 5.8934813846278985e-05  -1.2000973514910822e-02 8.1487920945706848e-03 4.3745186628641342e-05  -1.1042068717873976e-02 6.6725142450039764e-03 -2.4015266873082569e-04  -1.3388748311933272e-02 1.2301245657970857e-02 -3.9283280924818581e-05  -1.2344927882718850e-02 1.1960149074996982e-02 -7.1134709214507215e-04  -1.8358522933630630e-02 1.4527796938286677e-02 1.0317614820726418e-03  -7.3014063074894721e-03 9.1220090733016082e-03 -2.0192868446003076e-04  -1.1830779692813091e-02 1.7826039619729249e-02 -9.1926178385548540e-04  -1.3724097220832307e-02 1.7180251250618318e-02 5.3638062251539029e-04  -1.0373519290421032e-02 5.5451968014771074e-03 1.0060692104729631e-03  -1.9184333784295553e-02 5.0115602431143672e-03 1.5846590497754486e-04  -1.3181568370806231e-02 1.1584973605750110e-02 8.3166927491622243e-04  -1.9432881860531506e-02 9.6689995160469683e-03 -7.9238474276584897e-04  -1.2322383675483991e-02 1.3902080174490234e-02 -6.6722382285388246e-04  -1.3128134372681581e-02 8.6417141897780821e-03 2.7298182798401614e-05  -1.2843055519849943e-02 9.8153917915505696e-03 4.4364982766995022e-04  -1.4654202640821252e-02 1.4014695852803525e-02 -1.1093925545157990e-03  -1.1128341848971109e-02 1.1667894898081821e-02 9.0539881525823773e-04  -8.6361345350666613e-03 1.0958878940554398e-02 -3.4807089569487446e-04  -8.5915677124670121e-03 1.2717528979666813e-02 -1.1972594287620827e-04  -6.9280858309374799e-03 1.7679139133279276e-02 1.5179735797388424e-04  -7.0647247759375214e-03 1.2929497677212864e-02 5.0094803206202890e-04  -1.1955606703829025e-02 7.9105121816280179e-03 -3.9113133925480911e-04  -1.1497864586647142e-02 1.2045792594205615e-02 -3.4896980639744869e-05  -7.4459441092835504e-03 9.1376777989723400e-03 -4.6351604034434508e-04  -7.3085614169501783e-03 9.5391012531059072e-03 -1.0033191553246229e-03  -1.8214082661551865e-02 1.4601499457109693e-02 -6.5033964342693499e-04  -7.6835814590180901e-03 9.6011371919939616e-03 -7.0133831289083274e-04  -1.0930831000951867e-02 1.1604254908828692e-02 -4.3302257542335271e-04  -1.0956537080533941e-02 1.1628232205554843e-02 -8.0971360154845969e-04  -4.4071945969823782e-03 6.9508557268051913e-03 -4.5257483508873484e-04  -5.2916727032922750e-03 7.9600632935723000e-03 -1.0658078285054051e-03  -6.2760081517863791e-03 8.4986964205594224e-03 -3.5034880226324054e-04  -1.2760034205304046e-02 9.7552466499224322e-03 6.5403448111214798e-05  -1.0482485224449127e-02 6.0001594145841861e-03 7.2906959080173766e-04  -1.4133073277140380e-02 6.8582737508658363e-03 1.6970488729165634e-04  -1.9109555081870722e-02 7.2928155330356462e-03 -1.4136120418958221e-04  -1.0873536391469360e-02 6.4849138749053280e-03 2.5006440064931200e-04  -1.1772079359664039e-02 1.7891110596884079e-02 1.0078736808055079e-03  -1.0928894910213510e-02 4.7317829654206847e-03 7.5559617799828829e-04  </DataArray> 
</PointData> 
</Piece>
</UnstructuredGrid>
</VTKFile>