<?xml version="1.0"?>
<VTKFile type="UnstructuredGrid"  version="0.1"  >
<UnstructuredGrid>
<Piece  NumberOfPoints="187" NumberOfCells="659">
<Points>
<DataArray  type="Float64"  NumberOfComponents="3"  format="ascii">1.103193596384578 0.3504086635323349 0.7926247744809052  1.167609977272698 0.4754420500101144 1  0.9531946147586513 0.2860445573368379 1  1.298466289634289 0.2582810036338386 1  1.334629349047023 0.1545402339819274 0.6080677862736639  1.481952171293317 0.069454883228632 0.4891924348618718  1.292228821875236 0.3076565757391458 0.3322186037030394  1.499512864842357 0.3016748379228968 0.4450803538138309  1.059531587242102 -0.5973251627738123 0.226746809598138  1.234689442690562 -0.4855157749746795 0  1.12700915308356 -0.3265270678978057 0.1991237339620514  1.228727303117767 -0.459331046989373 0.3236051145881703  1.304637174418844 -0.7075626243921807 0.5186954339142219  1.054700059797406 -0.6058616406515142 0.4895215437898623  1.29264339957742 -0.7108631639275693 0.248925098563288  1.438290730876674 -0.4534288042395038 0.1837168804337665  1.519369205000765 -0.6057271090750227 0  1.685940558953262 -0.4500196176801594 0.2303894085313369  1.548728803732611 -0.6572481953988726 0.3158315927164428  1.183651748105934 -0.0883654662417532 0.1686858213653584  1.475518248201104 -0.03253804452700697 0.1856409670857923  1.244700343070279 0.08518987797507366 0.2297974176709325  1.302253607553284 -0.1432650666920791 0.3118732805312475  1.404571026518731 -0.5037511239056995 0.5348683201513614  1.691569412576089 -0.5609133899741244 0.4730081079198554  1.639622120442623 -0.7656643535348759 0.5754969080455435  1.460188519029665 -0.1629806199680669 0.5487051496768689  1.300998876090121 -0.06620015533026624 0.701459469341089  1.273734645489973 -0.3733223405901023 0.6677503680638732  1.462819035581377 -0.247240831275101 0.7930628205732373  1.670473167333107 -0.1571316353029762 0.6661267788475292  1.979883779915309 -0.2042434100745073 0.712108154714385  1.818614516256198 -0.02030257729722755 0.8224734275766558  1.718772121177439 -0.3866834318575563 0.7667746127709867  1.677712194062701 -0.09696593309475177 0.3004554327500731  1.692680460452608 0.5205670870368633 0.4884510932914654  1.917169598334859 0.5365510013527777 0.5234405719839987  1.863111706926676 0.7147559870323206 0.7298487012854733  1.917475790756809 0.5355416202106846 0.7116028463733042  1.465303716475479 0.1555907954635532 0.7693066961510502  1.492196561710194 -0.008262575110031561 1  1.260567092565374 0.007573152124507587 1  1.695334600029578 0.4618342482922941 1  1.769735857858306 0.3884762685421728 0.7884801425292696  1.890226041061335 0.6253720062608139 1  1.944583770390953 0.4461785874200146 1  1.596035538136801 -0.6475556862479659 1  1.647316553768361 -0.730739989356719 0.8042598622939813  1.68486642811149 -0.4847299792061015 1  1.880033966812036 -0.6589707722934499 1  1.589046394326455 0.1734990304878107 0.2392673584508079  1.590138388628021 0.4593370694758154 0.2945152002274293  1.75161262238811 -0.3424365565861829 0.5282437615390115  1.963304819553189 -0.3725724194805271 0.4090317868572118  1.914590748157589 -0.5450523310742783 0.3184745400471098  0.9812655729033243 0.1902138304267845 0.7574987250233383  1.215050768910942 0.1386989957370904 0.8003094172228006  0.9901015080865125 0.1005010749780065 1  1.464528240804089 -0.2828999629988727 0  1.534419107269049 -0.249970942395027 0.2134224265406987  1.633398862698542 4.551914400963142e-15 0  1.74700851512454 -0.1466881081279602 0  1.972468461473286 -0.2795324016947447 0  1.990822820491096 -0.09317746723157688 0  1.77461743563473 -0.2526246580210096 0.1862321566955051  1.98001051630629 0.2029566339025678 0.5236088117471787  1.760989227500415 -0.00528833666817291 0.5050452009358164  1.980906185775178 0.1938627491739629 0.3183348412008982  1.999999999999999 6.562936821510024e-15 0.4985104204901593  0.9851205740732167 -0.1510733467044346 0.5353394748175133  1.179472118936147 -0.275639623696938 0.4699018881232729  0.9994124437091498 0.005965559133313763 0.3049757398701156  1.211266277324824 0.05376660925060736 0.4750222709998441  1.722788334576396 0.2269019344391441 0.4623229700254903  1.532068162910535 -0.3538891104669777 0.4205296918786089  1.464362911603639 0.2828702393186497 0  1.691255191910918 0.3236620266614035 0  1.235813838380573 0.2458186562328234 0  1.099182398949108 0.3880552209149545 0.1957914270122534  0.9801620048072415 0.1971449862985168 0.2440297745786687  1.098809470646287 0.4309227919496545 0.4970820672189703  0.9807852804032302 0.1950903220161293 0.5  0.9994124437091498 0.005965559133313836 0.6950242601298845  1.761211515941985 0.3028647779885489 0.2630824387328117  1.91452828856335 0.5452582327623938 0.3183348412008885  1.963304819553187 0.3725724194805456 0.4088381320164703  1.315813659229962 0.4642700054059137 0.190741969146883  1.972468461473285 0.2795324016947586 0  1.963304819553187 0.3725724194805407 0.2278315503853166  1.60847672517662 0.2976949531213646 1  1.758219163862446 0.5058320789461144 0.1873275422099707  1.464759749160692 -0.2279365418393593 1  1.60218884797417 -0.3186951767398252 1  1.396392869618368 -0.3890520924672942 1  1.939487733266301 0.4629779704363389 0  1.417000388060469 -0.4785679949273929 0.7990159217257774  1.57182247208157 -0.573028538950262 0.6727634197640624  1.965032792437917 0.3550280163567101 0.6879528036207221  1.551045726738103 -0.3625086508181027 0.6344933565110418  1.270372303020529 0.3399894720193283 0.6755547641879112  1.602160287285755 0.3797090771718592 0.6428539477659331  1.374638822880307 -0.7269623812337992 0.7816877154595647  1.741278588091689 0.126947386673496 0.7075978800613815  1.998265741253273 -0.01760822455171618 0.729856113257398  0.9566434479642242 -0.2746752779217476 1  1.15960963244366 -0.133784674508656 0.813768916263945  0.9819596813949061 -0.1831664286442689 0.7574312328675253  0.991266036546923 -0.08867741909823949 1  0.9275246612083399 -0.3706670534361827 0.7592026267743015  1.083789219068689 -0.4208873855954158 0.843718620744255  1.651706286231434 -0.492963913758677 0  1.69133149318951 -0.3236757444728861 0  1.6011203483499 -0.009784525300421199 0.8111175192995834  1.722264110875199 -0.01251126431956822 1  1.742111332403817 -0.1969314331959243 1  1.915304617909812 -0.5426990178824754 0.5362464328982399  1.961570560806462 -0.3901806440322502 0.6880758838225918  1.992543541649014 0.07570669212566944 1  1.989102099333176 -0.1106482423374983 1  1.980906734726085 -0.1938571755818702 0.3184745400471098  1.999999999999999 7.030017234740516e-15 0.2684303249375376  1.472680754612366 -0.8169236440154841 0.189840841356636  1.575155775830446 -0.7921739152598291 0  1.684658001812216 -0.707206143290794 0.1871133687462477  1.885130003936687 -0.6421713892771256 0  1.939487733266305 -0.4629779704363262 0  0.9901015080865125 0.1005010749780065 0  0.9531946147586513 0.2860445573368379 0  1.110028565937067 -0.5800778232130865 0.7539770568553924  0.9290934823066148 -0.3654953433663091 0.5  0.9256196219250848 0.3769471263237471 0.6950242601298844  1.769613665775187 0.05997591630620478 0.1684085184033754  1.970747740315366 -0.2970031768006661 1  1.764178512674736 -0.9217350799576589 0.681768998400603  1.852895194671704 -0.7484353143731675 0.5014860358011748  1.852895194671704 -0.7484353143731672 0.7315421186961406  1.820174014213996 -0.8169748649255524 0  1.858012708296992 -0.7315651328223709 0.270153780587444  1.990822820491094 0.0931774672315908 0  1.742593188394772 0.1709180888880761 1  1.731901851626541 -0.9821204655507586 0  1.421858507630868 0.5458021515535201 0.7388856714641274  1.441408417263395 0.372870218740492 1  1.211168023066412 0.540194530300085 0.7960425385136159  1.300711656090317 -0.2425005443680098 1  1.811898498971423 -0.8324572649841648 1  1.980013336132633 -0.2029280037252451 0.5237366283853655  1.354488390167804 -0.10560864479399 1  1.661746245061362 0.5816837277146546 0.7663103395431662  1.094939503450844 -0.5311189597851912 0  1.357588177110721 0.6051791325630997 0.4890122966951662  1.908887973030375 -0.5638518612336261 0.7589171845960132  1.934391696141654 -0.4797773534526505 1  1.974189182631204 0.2620616265888372 1  1.963304819553189 -0.372572419480527 0.2279172932370081  0.991266036546923 -0.08867741909823949 0  1.675712442972969 0.5076096835010768 0  1.885130003936683 0.6421713892771383 0  1.773358286409876 -0.9045609312492104 0.2410240474052892  0.9566434479642242 -0.2746752779217476 0  0.981959681394906 -0.1831664286442689 0.2425687671324747  1.759877105553066 -0.9297824466678363 0.4766530223320761  1.117097531608276 -0.7081609724092219 1  1.17332786419343 -0.4614164932755894 1  0.9275246612083398 -0.3706670534361827 0.2407973732256985  1.326819405245446 0.007980982327727537 0  0.8818750233254947 0.4612683417535055 0  1.229886675696233 0.5007899141836832 0  1.158873917003066 0.3715846019556962 0  1.605658537252647 0.6244509830031152 1  1.858012708296987 0.7315651328223847 0.4985186121010893  1.654707948355699 -0.6668018593030738 0  1.238811424842835 -0.2309781201142494 0  0.8874756245502677 -0.4507903538350485 1  1.757277036224743 0.3216215622190277 1  1.18691889078285 0.007119794952739233 0  1.381951970976821 -0.5634760338254743 1  0.9256196219250847 0.3769471263237471 0.3049757398701155  0.8874756245502677 -0.4507903538350485 0  1.388222600345667 0.5481825370432527 1  0.8523194685862787 0.5165628955080167 0.5353394748175138  1.408994663971455 0.4584005427637182 0  1.254380730905587 -0.8083467088102502 0  1.064679695988678 -0.6749731916823414 0  1.209271688098489 -0.1289204172949369 1  1.828449529456563 0.8014924648669517 1  0.8818750233254947 0.4612683417535055 1  </DataArray>
</Points>
<Cells>
[...]
<PointData  Vectors="f_10-0"> 
<DataArray  type="Float64"  Name="f_10-0"  NumberOfComponents="3" format="ascii">1.5566791412992968e-02 8.0238248792291970e-03 2.2890906699706598e-04  1.4951854976977838e-02 9.0976105439160501e-03 4.1303872232698491e-04  1.9507607089290318e-02 7.7431508712493434e-03 7.9139149907617547e-04  1.2705346398203594e-02 4.8095699603518480e-03 -5.4729019177598862e-04  1.1468880390677399e-02 2.9602505119286416e-03 -1.6812778406736508e-04  9.3431950543859804e-03 1.1536020102938065e-03 5.6125009725818792e-06  1.2517433387067884e-02 5.7339468878229750e-03 1.1153791016559879e-04  9.9110160217834153e-03 4.2397469500377863e-03 6.7050835717453739e-05  1.5603144179632314e-02 -1.1144195430027159e-02 -5.7739566747990725e-04  1.4133525294642938e-02 -8.2614551771089551e-03 -2.0568297419671017e-04  1.5189012993521198e-02 -7.1130099142465673e-03 -1.2762339503292705e-04  1.3739035061726723e-02 -8.0500967601276740e-03 -9.7802747662341336e-05  1.3366988293397145e-02 -9.6007021697629945e-03 -9.9581530354432267e-06  1.5548876248491005e-02 -1.1191749920057172e-02 -3.8404738044310197e-05  1.3541040999810530e-02 -9.7984454089410280e-03 -1.8230782640115827e-04  1.1447600325359610e-02 -6.2174697981022022e-03 2.4725271699468438e-04  1.1699411779236888e-02 -7.1300390631979073e-03 3.6140373500291286e-04  9.1475901499952755e-03 -4.3400777634438692e-03 3.6039756610424577e-04  1.1422252104920505e-02 -7.3077520492230109e-03 1.2991535674195662e-04  1.4147465210963861e-02 -1.8571216047881087e-03 3.2255952207470344e-04  9.5214895412527971e-03 -3.1995009922682408e-04 6.6406103268554033e-04  1.2913463864831760e-02 1.9457512069598717e-03 3.6949029321825148e-04  1.1967946731439678e-02 -2.5677785448545115e-03 2.6539119974895080e-04  1.1900358136820251e-02 -7.0004314799989196e-03 -4.3477953622711509e-05  9.7492434312480419e-03 -5.2944628317594692e-03 1.1996892701131009e-05  1.1377163851768207e-02 -7.3918281740829681e-03 -1.1912215270888741e-04  9.8258847718283044e-03 -2.2365738360203761e-03 -1.0254657757044371e-04  1.1903443873260882e-02 -1.1283430735584976e-03 -3.3698918776099219e-04  1.2984849598024144e-02 -6.5316441329884732e-03 -5.7755215621954717e-05  1.0225191963439996e-02 -3.4518495248297811e-03 -5.0183986204078036e-04  7.7750226965891626e-03 -1.4525988666533904e-03 -3.2713414169941585e-04  6.1375017549928339e-03 -8.4331504070100157e-04 -3.7144747303911955e-04  6.6187367809084881e-03 8.2957471673176854e-06 -5.4427685360074521e-04  8.5045977688847502e-03 -3.5105612880735569e-03 -4.3242269500011563e-04  7.5731165314896548e-03 -8.2490215492416548e-04 3.5383684034869764e-04  9.4534257496371437e-03 5.2606337780583779e-03 1.3453523291478280e-06  8.1573266253978961e-03 3.5276734777741144e-03 -6.3257839967758781e-05  9.8350074754156823e-03 5.3407313778399586e-03 -4.2881773666536392e-04  8.2016908801246478e-03 3.5412464705996418e-03 -3.8759843822718345e-04  9.8191333888662628e-03 2.4458293250487553e-03 -5.3807426318417317e-04  9.4831223975373712e-03 3.6020202401495619e-05 -1.0975188629534047e-03  1.2963728643741531e-02 3.2057925143736483e-04 -8.1625712464422650e-04  9.3007157796919735e-03 4.6915734770072385e-03 -7.3166378346568774e-04  8.1414845626634359e-03 3.5129853026140447e-03 -4.6330653163118290e-04  9.2118058418138894e-03 4.4420867997447449e-03 -8.9207995825006984e-04  7.5826411977337003e-03 2.7130633720423196e-03 -8.0804213041727477e-04  1.1338816212906623e-02 -6.9068534079863410e-03 -5.5696062046123025e-04  1.1261098010856042e-02 -7.1397544748210591e-03 -3.9438859828250163e-04  9.5793486749725099e-03 -4.6831572324598615e-03 -7.2521040300779879e-04  9.5715551493073571e-03 -4.4693489235634234e-03 -9.1485060524183206e-04  8.5575401677126309e-03 2.2214704826480258e-03 4.8501754532302423e-04  9.9434258854578933e-03 5.4430178243968057e-03 2.4340734498060328e-04  7.9178924007971014e-03 -2.8602726289638889e-03 -7.4671082020052565e-05  6.9065871837548296e-03 -1.8209111194005877e-03 1.2118724645307913e-04  8.2879849788658824e-03 -3.2779681766201330e-03 2.8571457941251955e-04  1.8772519899929469e-02 5.2614662767985227e-03 1.5250748979943882e-04  1.3556732830738105e-02 3.1490994032353547e-03 -3.2412117496950738e-04  1.9124804873877074e-02 2.7698889928992922e-03 1.3618533302752340e-04  1.0544647609153236e-02 -3.8274241198418065e-03 7.5901740840333021e-04  9.4324580589512028e-03 -3.1044070659215334e-03 4.7413207564995949e-04  7.9848257900952992e-03 1.7309425229343126e-04 9.6383904368358894e-04  7.2901316456552793e-03 -1.1222564083112065e-03 8.0520172909303558e-04  6.5271364737870836e-03 -1.2343772094431170e-03 6.9673729141576078e-04  5.8927115847648513e-03 -2.4552458539450322e-04 6.6181664619356640e-04  7.4312677633141715e-03 -1.9764227012126754e-03 4.8153085441944159e-04  6.0908856411066815e-03 1.1665126084659991e-03 -6.5693948976362738e-05  6.8466305722418332e-03 1.1695120502508443e-04 -2.7554002903306662e-05  6.0801792186240371e-03 1.1238394706055606e-03 2.7121261739279786e-04  5.7152506571004277e-03 1.7470690606217934e-04 -2.1183339092604948e-05  1.8663187403824760e-02 -3.7868103739076096e-03 1.8517775782840864e-06  1.4205804129838417e-02 -5.7980644750495651e-03 -6.6070375152848828e-06  1.8532059980682299e-02 3.1824922653741848e-04 4.2833821499244147e-05  1.3487847677177050e-02 1.3235867785187096e-03 5.8706272370701155e-06  7.5661996939340682e-03 2.2851072528235631e-03 4.2621808561152546e-05  9.8921686649410256e-03 -4.3610888997372621e-03 9.1459458431535008e-05  1.0539144476368407e-02 4.1674057243389169e-03 7.8908327321077258e-04  8.4567369536456480e-03 3.3625422498555911e-03 7.7154462671969750e-04  1.3663556187473509e-02 5.0422280240806049e-03 4.0689267546601375e-04  1.5579830177255545e-02 8.7046205118872857e-03 -2.9477101843535186e-04  1.8787226967420807e-02 5.4577095000151055e-03 -1.6586105716802826e-04  1.5417175636577657e-02 9.2945799190245777e-03 -1.2114698144815716e-05  1.8664475615360953e-02 5.3617314860264099e-03 -4.2753645298620408e-06  1.8522122313382954e-02 2.9690764859002073e-04 -7.0547869484658698e-05  7.6921137888076333e-03 2.8130745305789905e-03 3.5824504580615209e-04  8.2634043904107959e-03 3.6285140707772992e-03 2.9618349714195216e-04  6.8852169192212351e-03 2.1605412931332531e-03 1.3190428880749264e-04  1.2786924417940116e-02 7.7003522630672552e-03 5.2055504796640329e-05  6.5077770178379752e-03 1.5918707310442093e-03 7.0738294480108806e-04  6.9486651273489540e-03 2.1647259936123939e-03 4.2830734181232525e-04  9.0935675107087343e-03 3.5262752312060098e-03 -8.4089435144679161e-04  8.9769147285493432e-03 4.6357490198522056e-03 4.5208837536077698e-04  1.0326476152810097e-02 -3.0992080974484135e-03 -8.7238379540072717e-04  9.2661240887790958e-03 -3.4855997590977766e-03 -8.1611564189725948e-04  1.1884051982363043e-02 -5.7121006396155163e-03 -4.7811567145814965e-04  7.7043432340122894e-03 2.8683827250520601e-03 7.7509618260771104e-04  1.1788311316169000e-02 -6.6804700893334122e-03 -2.0958079558535506e-04  1.0783713538843717e-02 -6.3757121205729357e-03 -2.0093116900229461e-04  6.8133649121999550e-03 2.0538110104614303e-03 -3.4158432959064761e-04  9.7584254456946906e-03 -4.3431972880421423e-03 -2.1005517766849369e-04  1.2904723347567622e-02 6.3898152351646404e-03 -9.0643034909370783e-05  9.3556919310040145e-03 4.4983085961982751e-03 -2.1989899334428039e-04  1.3003979044196324e-02 -9.2674931931603071e-03 8.7508501187275573e-06  7.1729333724410401e-03 1.3065949778860800e-03 -3.7861895482751805e-04  5.7607677965836939e-03 8.3866703104133576e-05 -3.8814252925174086e-04  1.9522071893885072e-02 -7.1324560302054698e-03 6.5418455244740383e-04  1.4650131323968198e-02 -2.9670069013205949e-03 -2.6169589105863605e-04  1.8780618424713662e-02 -4.7837627760736780e-03 1.1491633641975419e-04  1.9039487626416551e-02 -2.1957613657268070e-03 1.4541817362694225e-04  1.9019295651797653e-02 -9.4961662302212244e-03 5.1563576213296055e-04  1.5814737628469258e-02 -9.0439851148067327e-03 3.9732617585397394e-04  9.8799702896912225e-03 -4.9954192432180682e-03 6.4637720200625879e-04  8.4653425179356933e-03 -3.0137411901831096e-03 7.6368245171819595e-04  8.2184258114095660e-03 3.9046554742838178e-05 -6.7091980933696959e-04  7.2772350063197710e-03 4.4702038682758561e-05 -8.9417520861499375e-04  7.5199915053944175e-03 -1.5986020601290846e-03 -8.5213607444374108e-04  8.2432062397711833e-03 -3.2549848773957527e-03 -9.4686923741744047e-05  7.0471460154014100e-03 -1.9402569341974440e-03 -3.4724187966304025e-04  5.8794102539957722e-03 5.0722416178522315e-04 -7.1719619328238339e-04  5.9521436656900161e-03 -3.4446089813904951e-04 -7.1315944723258982e-04  6.0878246206269035e-03 -7.7282186211459578e-04 2.7109085475530379e-04  5.7396598329093182e-03 1.7132178893484516e-04 3.3261796294125007e-04  1.2646983230684441e-02 -9.1002055574908661e-03 1.1475941106129940e-04  1.2246940541317518e-02 -8.2240969548298248e-03 4.6525049042381143e-04  1.0866809247022467e-02 -6.6090710112997478e-03 3.9509086383834055e-04  9.3814435332587268e-03 -4.2806501366200594e-03 8.4890210348056864e-04  7.7270816659121251e-03 -2.5152074916095350e-03 7.6530908770849177e-04  1.9122978413509933e-02 2.7607873334010956e-03 -1.4124021235402734e-04  1.9458782751992944e-02 7.7417064486049294e-03 -8.1494200702465097e-04  1.5157554323608107e-02 -1.0469496083834190e-02 4.1561965529522790e-04  1.8844265522201174e-02 -9.4168673169092616e-03 -1.2431965099258170e-05  1.8857783501898984e-02 9.9278141206289340e-03 4.2470945477477497e-04  6.9387920557425174e-03 6.7821736928384108e-04 5.4212650213989160e-04  6.6288220800246730e-03 -1.3540423416630578e-03 -7.5755808454587689e-04  1.1643744061146618e-02 -7.3916205242822016e-03 -3.5329741417862085e-04  1.0105176671128200e-02 -5.3420133664039259e-03 -3.7268568500710208e-05  1.0168984970287436e-02 -5.3595784737840556e-03 -4.4624289936105298e-04  1.1061901345463865e-02 -6.2541702286683541e-03 9.2168148904422150e-04  1.0005608565748883e-02 -5.1826525509735891e-03 3.7190712801784891e-04  5.8897400393165033e-03 6.0653713208002301e-04 6.5371190672538213e-04  7.4158566347305634e-03 1.6788119069126039e-03 -8.6129900522815747e-04  1.2390479787991423e-02 -8.2126460196745715e-03 8.4270886389399623e-04  1.1943639463031307e-02 7.6393059075436824e-03 -1.2428235262985853e-04  1.1253384429834042e-02 5.4866357494032869e-03 -5.9796077220187701e-04  1.4107014964406500e-02 9.4397395533599888e-03 2.3593640986814470e-04  1.2629394527380371e-02 -4.2483492412414749e-03 -5.8721702967822311e-04  1.1236178391494933e-02 -6.4604315121276771e-03 -9.8425491625236537e-04  6.1020790222207763e-03 -8.2836500322371965e-04 -6.4575627534792465e-05  1.1448598900702302e-02 -1.6837504256252450e-03 -9.6013294726481600e-04  1.0172620151726472e-02 6.0760201476454251e-03 -3.5832501369890214e-04  1.5760251390649269e-02 -1.0220628238750295e-02 -7.8897901341151017e-04  1.2663134236270350e-02 8.6965670373571925e-03 -1.2401542382748088e-05  8.5061463745107722e-03 -3.4850177393811262e-03 -4.7897107041666422e-04  7.8841346667294695e-03 -2.6802940491632435e-03 -8.3116160107979246e-04  6.4504742521910054e-03 1.4834765196209982e-03 -7.3854581853977997e-04  6.9734091162107388e-03 -1.8188549916453114e-03 4.1698951075886260e-04  1.9058418110528857e-02 -2.1567038885357340e-03 -1.7578391079024801e-04  9.7496505454769643e-03 5.2893878466897318e-03 6.6964579492505099e-04  9.3413316803771882e-03 4.6272161104124829e-03 8.5695700629220242e-04  1.1561181987754016e-02 -7.2282671197373364e-03 4.1824133514842726e-04  1.9461505616823766e-02 -7.1442466455773216e-03 -7.3327901414032073e-04  1.8785185033355238e-02 -4.8029873608388144e-03 -1.4642490955541114e-04  1.1659273028769408e-02 -7.4498599160612413e-03 1.6695718655975809e-05  1.5322150898722122e-02 -1.1410108615009944e-02 8.8630473991318094e-04  1.4869384965890176e-02 -8.5667320954294374e-03 3.2448694382856822e-04  1.8939059495683780e-02 -9.5113450434426219e-03 -5.5383996442416573e-04  1.1782420533126460e-02 3.0250011071683206e-04 9.3336897837456155e-04  1.9372382752995000e-02 1.2011926273375372e-02 -1.5956170430790598e-03  1.4183614285710957e-02 8.8170820745719740e-03 -2.6934816705757208e-04  1.5032004113678608e-02 7.7376680863365877e-03 -1.8510547414026836e-04  1.1106001575699426e-02 6.9369850659432384e-03 -5.8401389046751145e-04  9.9270469092221196e-03 5.5039463824585674e-03 -2.2684523050126392e-05  1.1013384896576066e-02 -6.5742228978910612e-03 6.1165916407960436e-04  1.3591028321811041e-02 -4.4510279059598798e-03 4.5685356548076894e-04  1.9491955848928225e-02 -1.1508187527259593e-02 1.5850854835143722e-03  7.9458110796641144e-03 2.9697643410128817e-03 -7.9171643393897582e-04  1.4395168922498919e-02 3.1546161998632482e-04 5.4833031355900111e-04  1.2780644666593167e-02 -7.8242090914049794e-03 -1.1708563137125322e-04  1.8887521432364232e-02 9.9152277420449172e-03 -4.3422323080907305e-04  1.9528911749410072e-02 -1.1475615584112012e-02 -1.5875518851051404e-03  1.2624059271447340e-02 7.9139407167593025e-03 -1.4590029969865106e-04  1.8604545623129874e-02 1.2767465565202789e-02 1.2035189212596079e-04  1.1983884450140229e-02 6.7486703579134263e-03 3.4711263571451326e-04  1.4239236365053554e-02 -1.0823579721739232e-02 -4.1707295549565286e-04  1.5788434247921698e-02 -1.1732969976065493e-02 -1.0953286630376593e-03  1.4017766037826573e-02 -2.5772175238340258e-03 -5.2514257153839748e-04  1.0905354921016248e-02 6.3893750831979347e-03 -9.5698482617346463e-04  1.9455301766374316e-02 1.1995502392682890e-02 1.5997422497821703e-03  </DataArray> 
</PointData> 
</Piece>
</UnstructuredGrid>
</VTKFile>