<?xml version="1.0"?>
<VTKFile type="UnstructuredGrid"  version="0.1"  >
<UnstructuredGrid>
<Piece  NumberOfPoints="190" NumberOfCells="679">
<Points>
<DataArray  type="Float64"  NumberOfComponents="3"  format="ascii">-1.146527028962373 1.167114312334814 0  -0.9184143406250429 1.15951227012599 0.181890248271007  -1.117408632183515 1.349324948359656 0  -1.127667895979856 1.429138092744414 0.1957268739948787  -0.843554369120634 1.571972381406213 0.1893355977975628  -1.023406865707073 1.709833810979671 0  -1.105932760739799 1.665722801080373 0.2684407995307424  -0.6404454764412717 1.557452185064736 0.3229483011552194  -0.6049140089552396 1.896431906697228 0.3184572261395962  -0.5174396855537765 1.720603924206695 0.4455678853971146  -0.6789195424108355 1.679413385346867 0.172716471184192  -1.297015254039048 1.200330857140984 0.198215552709849  -1.513321347298536 1.293450377028231 0.318300028577906  -1.577555788316503 1.215180484183664 0  -1.466118612717564 1.06068664004738 0.1854634457573004  -1.417954567522155 0.9826958282046394 0  -1.687765770332819 1.064693265863353 0  -1.776037932920274 0.899547665238146 0  -1.538403791801157 0.8564673244602555 0.1943213337786517  -0.3365162964824625 0.9378841800729312 0.2405432884014713  -0.4415185705098927 1.234655578466227 0.3250771953421422  -0.5209854872342006 1.060897459510266 0.207962911636449  -0.3313057231869522 0.9394647902018173 0.5  -1.264272254491768 1.537267213620411 0.5235172542791873  -1.237771957270619 1.559015445500463 0.7085720153548473  -1.382377160656424 1.440341022038268 0.687926620973708  -1.192571215110794 1.302722308512609 0.4782864723562278  -0.8092614669963184 1.031632698922229 0.6791456875279881  -0.747028838074304 0.9125730243322504 0.8266226570201092  -0.984599909939442 1.149923132667671 0.7848661116286425  -0.9141816130997213 0.7634549129288799 0.8251041360935342  -0.867837335236696 0.8425368172721063 0.5309559614124686  -0.6564424890631831 0.7486858911845402 0.7578281535473971  -0.631840153311841 0.7688765063405124 0.5362539270910898  -0.688391004567446 1.30457807950404 0.2279694399321673  -0.632518690427178 1.508037302070591 0  -0.5246326138228607 1.437575172319297 0.1874291779963437  -1.162812384258729 0.869959537678654 0.1967137241630482  -1.098472765100997 1.059915202872253 0.2606957431243106  -1.34993589569112 0.9730419110075272 0.3324974874943423  -0.786137885070551 0.6108071024727797 0.5  -1.027957718484444 0.807486031122658 0.3458033622348064  -1.052829203020905 0.5589047274949172 0.5085767754743842  -1.190015801986949 0.4859549610262058 0.2855300420029705  -1.156663002991701 0.588550599634463 0  -1.391582474002526 0.487267687798005 0.2096997911392877  -1.351229656953599 0.5151732646136987 0  -0.7757759682718035 1.842195283264311 0.2279005027763657  -0.7757759682718033 1.842195283264311 0.409013949502827  -0.502990862578652 0.859573871324515 0.3047494630173089  -1.061606909442319 0.9785837600988989 0  -1.315004706961013 0.6972167789990056 0.7557377227898123  -1.232115836721338 0.7631644816213363 1  -1.341896336811819 0.9405672826140373 1  -1.519741993526035 0.8886244139057863 1  -0.686969743987339 1.871540571604279 0  -0.7259496343859416 0.6841466981309493 1  -1.026493956220598 0.7984228743741494 1  -0.8426708147520899 0.5346142571826912 1  -1.24261630433174 0.4137133052539228 0.6762314288941822  -0.88740992893716 0.4509132616824052 0.6953011277941856  -0.947388990623786 0.3051831352366393 0.5363564105802381  -0.3992359231948405 1.264547218604192 0.6584240094702515  -0.5717031409302165 1.095411659227544 0.7615148223574963  -0.5307010043682088 1.3826952685512 0.785767467294626  -0.729538575546018 1.293711139943365 0.7838102578313236  -0.7951415571745835 1.035950760589855 0.3163792525461149  -0.7096214621866395 1.292436199645492 0.5012219118924913  -0.9057171194088783 1.167072336234832 0.4757488249981465  -0.5897572390507918 1.041671125967472 0.5035706790610246  -1.314905435161327 0.6745560659922012 0.4904638895724882  -1.082991713996318 0.5611808793048219 0.7692622717403119  -1.059160609976377 0.7755841138468872 0.6725939498558352  -0.8710834293743044 1.505323501426417 0.4555006884842235  -1.105932760739799 1.665722801080372 0.4985114786665089  -0.8055581621776347 1.507858556983968 0.6786829354555336  -0.9261071527929903 1.761841591057063 0.523708165574422  -0.9290527823196455 0.3656295132424565 1  -1.257212323284817 1.543061149426666 0.3183000285779041  -1.323743981377913 1.488460028710997 0  -1.395988323856183 1.429170629081718 0.2278152199502795  -0.9341416419748636 1.757547067117675 0.3184572261395966  -0.9856468025470075 1.360627069214379 0.677554604785177  -1.201967891204917 0.876419588486421 0.481981018650006  -1.109788677070211 1.078120207642546 0.5482802068902228  -1.43290247623816 1.102502474805115 0.8016223533815361  -1.625681761742057 1.156538815892274 0.729852265836384  -1.382702032230889 0.9409546224454185 0.6727156764281601  -1.723626336383972 0.9976028656093632 0.7650330778500383  -1.308120441486432 0.7203201397046752 0.2251752624482485  -1.234622620676914 0.8484318635280916 0  -1.49971092276425 0.6607539289614928 0  -1.358753583540909 0.4331344014522989 0.4586164123344102  -1.557364917173048 0.7833533360165803 0.4519990588587856  -1.501461285193593 0.980762205338028 0.5025361493182261  -0.7120164604963927 1.653427389927467 0.5133392593030189  -0.6072692169943243 1.895717462149367 0.5362964439456972  -0.829538772807962 1.24650646003822 0  -1.155399090771521 0.9863986739672237 0.7842371480028336  -0.6715976806087487 0.9382906322624599 0.2026049840720276  -1.735554095143283 0.9752875985231242 0.3176742093519687  -1.820074272553177 0.8171614684481179 0.2274378431626041  -1.50754886084441 1.300484172123991 0.5233657346304179  -1.503511147564677 1.30540413999066 0.759039402697864  -1.566418818365817 1.228750921332943 1  -0.5831223326863202 0.8088581884632724 0  -0.7259496343859416 0.6841466981309493 0  -0.8777650763659706 0.8392187700021254 0.1791968347231586  -1.08750656824373 1.473373412162729 0.4186198326001243  -1.447624472225162 1.37350225092525 1  -0.836286829552076 0.9546547382372724 1  -1.598442001919816 0.8131212705610243 0.8005177185861571  -1.7677624176777 0.9150300652967593 1  -1.679490255090245 1.080175665921967 1  -1.001523373036278 1.311368911517147 0.3182110729693932  -0.9546612534662056 1.436284063075672 0  -1.081385764646495 1.38355427730711 1  -1.215281538736748 1.23842223823042 0.7322010707000174  -1.090347441409376 1.674053327819833 0.7298514348497547  -0.9253516653358563 1.762245407515972 0.7647596514128244  -0.6561306764426973 1.122404365790671 1  -0.5831223326863202 0.8088581884632724 1  -1.033708622788163 1.501105289131701 0.8095881280656126  -0.8326984114354637 1.541357275927116 1  -1.65956562518322 0.6779485992594181 0.1896533736052345  -0.859137602666504 1.164403067154992 1  -0.3346493386806206 1.523066756827354 0.432978452806852  -0.4252082943158828 1.690757594369593 0.2517423600102111  -1.157675661796024 0.2874316557483794 0.8237284357888865  -1.132192252194075 0.5760415911141321 1  -1.250327345612778 0.359966722685725 1  -0.6564424890631833 0.7486858911845402 0.2421718464526029  -1.015880871007985 0.6194584810981399 0.2107616280594863  -0.88740992893716 0.4509132616824052 0.3046988722058144  -1.341242197725124 1.124251621324452 1  -1.570108367541714 0.5323200146201426 0.3214131146464111  -1.395988323856182 1.429170629081719 0.4087848372055307  -1.460830652517014 1.031080833577986 1  -0.4431978912794227 1.258461435479526 0  -0.8426708147520899 0.5346142571826912 0  -1.003191405728223 0.7802335023438158 0  -1.111399709213698 0.3143340114943649 0.3936982570693697  -0.3525296771925283 1.668146412112005 0  -0.5077763251465404 1.925898300933896 0  -0.8582612650818664 1.798105973567126 0  -1.564690195006766 0.6196325639107423 0.6892222911693506  -1.007924465648459 1.718109326222245 1  -1.044995883534605 1.072574953573793 1  -0.510994707505987 1.404217254440446 0.5163700951909265  -0.9566144206959937 0.2747709680011161 0.7579149180877363  -1.346016855126876 1.122799247643388 0.5201991910084716  -1.739883507367786 0.9671878379506875 0.5226731680922776  -1.811833783889858 0.8325783383860297 0.6875310263852326  -1.198818116171656 1.24025052295321 1  -1.310173544228634 1.499596998661683 1  -0.7896033500135112 0.6065844212219812 0.7595504241117756  -0.5790841934569149 1.560047235753897 0.6688754989314865  -0.4193563900796843 0.9042774282245836 0  -0.502990862578652 0.859573871324515 0.6952505369826911  -1.857951139271881 0.7317680986975148 0  -0.9819498088636408 0.1832666661363625 1  -1.458761442175848 1.359931813775971 0  -0.9290527823196455 0.3656295132424565 0  -0.6409506341987898 1.096351193148543 0  -1.370317109984933 0.6068829405856371 1  -1.636811764939919 1.142976867755874 0.2684766850732475  -0.854850831960664 0.9759153804258832 0  -1.178992651785606 1.607254374851652 0  -0.5702152500099751 1.383891866592444 1  -0.4213746699951029 1.196244977459891 1  -0.2405674396764836 0.9669899475809407 0  -0.3177026153873686 1.177369199564174 0  -1.573062635283103 0.710522813525687 1  -0.8967436892907179 1.368269408810351 1  -0.7036168792142508 1.675069862734098 0.8042164232910654  -0.8427788650232531 1.8063814888097 1  -0.7827528258206699 0.6149318091030841 0.3055073908801145  -0.6560191600603796 1.594701905386204 1  -0.9772470823615382 1.495419026301591 1  -1.165422214636327 1.618391344802338 1  -0.5821061254012698 1.903350602533428 0.7233926634179388  -0.6701703609710137 1.87663660872893 1  -0.7597161751969241 1.849473182952581 0.6880608757141868  -1.636811764939919 1.142976867755873 0.4985204057412241  -1.663935857491406 0.5750728785195803 0  -1.222473603421901 0.3518873350067027 0  -0.9566144206959937 0.2747709680011161 0.2420850819122637  -1.820074272553176 0.817161468448121 0.4079105755413405  -0.4193563900796843 0.9042774282245836 1  -1.46295663988695 0.3280486082887119 0  </DataArray>
</Points>
<Cells>
[...]
<PointData  Vectors="f_18"> 
<DataArray  type="Float64"  Name="f_18"  NumberOfComponents="3" format="ascii">-5.9004087429578765e-02 6.0584657827255833e-02 9.2163078702210965e-03  -5.5680984529058355e-02 7.0994923485785316e-02 6.0667348473261813e-03  -5.1687405885563489e-02 6.2798985607020644e-02 9.4771019087596838e-03  -4.8944085392168706e-02 6.2649552748588994e-02 5.8448963123111158e-03  -3.7963531657393225e-02 7.0932440720257547e-02 5.9956100471626490e-03  -3.8953207118083061e-02 6.5368780377645402e-02 9.3829402919756513e-03  -4.1753494145397523e-02 6.3498021212330280e-02 4.5583032764774604e-03  -3.1554552413777026e-02 7.6878596325770820e-02 3.4859469564219900e-03  -2.3221727935709112e-02 7.2542424807301553e-02 3.7475483965880357e-03  -2.3278069953361076e-02 7.6793700069907475e-02 1.2588029933101970e-03  -2.9903620188105447e-02 7.3986238726672052e-02 6.2527651634255556e-03  -5.8814437528949791e-02 5.5193522588181547e-02 5.8808508622751905e-03  -5.7374453273129622e-02 4.9699292647406926e-02 3.6874288589164050e-03  -5.9860906706176664e-02 4.6755717244941528e-02 9.6417409480220283e-03  -6.4079327774802505e-02 4.7116387782016003e-02 6.0969377283569938e-03  -6.6954122467822119e-02 4.7191542300678457e-02 9.4295127198304012e-03  -6.3822101551279889e-02 4.1061740157040942e-02 9.5994005762793620e-03  -6.7441421420970191e-02 3.4905174408844726e-02 9.6941221374731278e-03  -7.0323588454131544e-02 3.9958024916601907e-02 5.9785753265130847e-03  -4.0260085987866352e-02 1.1290906802296083e-01 4.8940900982250490e-03  -3.2824079911987200e-02 9.2043565316157983e-02 3.4973806326637027e-03  -4.6614135321403863e-02 9.4676160887894295e-02 5.2337710253388429e-03  -3.9914442605585458e-02 1.1253285967379210e-01 4.4515157792553660e-04  -4.7948174056775428e-02 5.9090551639772261e-02 -1.2101349474454869e-04  -4.6951206514922031e-02 5.9842649835698598e-02 -3.5254855147193367e-03  -5.2148320430947449e-02 5.5150965631216908e-02 -3.0298475382336998e-03  -5.4240399720857702e-02 6.0041381027535978e-02 8.9061493714369378e-04  -6.0091877228398073e-02 7.7309419275818927e-02 -2.4919264951134522e-03  -6.6845229463580486e-02 8.2180568673696303e-02 -5.0189690819748027e-03  -5.7492757171412306e-02 6.7799457916045441e-02 -4.4205666738738091e-03  -8.0258234072770732e-02 6.7861635720161656e-02 -5.2376376606385689e-03  -7.3917785311362852e-02 7.2438620758807915e-02 8.0470564790738124e-05  -7.8375833479668464e-02 9.0437655229654440e-02 -3.7383206086342288e-03  -7.5196857238797862e-02 9.2903684472534692e-02 -2.3498468907233626e-04  -4.2168852459462815e-02 7.9961410956202475e-02 5.2969374013729677e-03  -3.2762562730799527e-02 7.8237245247328516e-02 9.2013237696427184e-03  -3.0228227045703885e-02 8.2867238137632235e-02 5.8578872867303747e-03  -7.2805147616244695e-02 5.4949636125480837e-02 5.7870485308389496e-03  -6.3066227110474785e-02 6.1446242398451152e-02 4.5847876188648525e-03  -6.7372782889744215e-02 4.9383020649952696e-02 3.4219685339833758e-03  -9.3847199182900909e-02 7.3435254335687677e-02 6.9992723523203300e-04  -7.6679585002893000e-02 6.0958383969260524e-02 3.1389718737982399e-03  -9.2258687838058046e-02 4.9865894297796053e-02 1.7756367047869727e-04  -9.1290284394330998e-02 3.8251009763916620e-02 4.0897232715031385e-03  -8.7203510107814505e-02 4.5182169397215574e-02 8.9370689606841879e-03  -8.4799403161468875e-02 3.0496146684941761e-02 5.5593679039223154e-03  -8.5162578637385897e-02 3.3326367715909466e-02 9.0332967017796705e-03  -2.9438515022279298e-02 6.9976995685839358e-02 5.3259536799781177e-03  -2.9546285168771079e-02 7.0015499819865476e-02 1.9539942534619790e-03  -6.0256088923140848e-02 1.0358510532443907e-01 3.8979483709443599e-03  -6.7104942312091714e-02 6.2546811450385764e-02 9.3736177123826744e-03  -7.8782689793832628e-02 4.2704650777119615e-02 -3.9533489072935378e-03  -7.7464204386081426e-02 4.8777245596537962e-02 -7.9690118321216717e-03  -6.8754291520508798e-02 4.9038535905348332e-02 -8.3390573498707404e-03  -6.9551497951579652e-02 4.1497605567875184e-02 -8.4988566688178491e-03  -2.6400945243685529e-02 7.1555249757365172e-02 9.5588472703795196e-03  -8.6626567335453819e-02 8.2204164388754136e-02 -7.7289207699765446e-03  -7.7472573620584614e-02 6.1002911101732137e-02 -8.1228566854896662e-03  -1.0046397234245820e-01 6.4575720960498351e-02 -7.1972966949562390e-03  -9.2355560699105485e-02 3.1721022445744963e-02 -2.3588332343690154e-03  -1.0602262202061734e-01 5.5097919433494569e-02 -2.7124932371752923e-03  -1.1311318419794676e-01 3.8030698994284393e-02 -1.3147748903118343e-04  -2.9279476677357093e-02 9.2682048008741608e-02 -2.3074423491976212e-03  -4.7182856530714405e-02 9.0737328700687653e-02 -3.9356632693393189e-03  -3.2167846579892447e-02 8.4250551850638122e-02 -4.6743725932265872e-03  -4.3833601826696510e-02 7.8657321204330791e-02 -4.5238100740695947e-03  -5.9657931960744183e-02 7.7923832653513922e-02 3.5422731959644988e-03  -4.3219971430188103e-02 7.9361049754564900e-02 4.4932588640658088e-04  -5.4990675864763597e-02 7.1611233048831838e-02 8.0930111358671253e-04  -5.1570780920187305e-02 9.1412067660287671e-02 3.6692318114132499e-04  -7.9480559998233710e-02 4.1861618189234180e-02 6.4789870587406942e-04  -9.1171309291822336e-02 4.8142278248242680e-02 -3.8910410774953548e-03  -7.8405802658367357e-02 5.8125762552211975e-02 -2.2795336606486641e-03  -4.0652247288471333e-02 7.0686115201499228e-02 1.1926916007110461e-03  -4.1855716196397677e-02 6.3406792362394410e-02 3.8956409152473778e-04  -3.8776557935248590e-02 7.2802113329721654e-02 -2.8501537076361006e-03  -3.5366283106212239e-02 6.7264437342575048e-02 -7.2063733472550739e-05  -1.1056153694287146e-01 4.4577789767960854e-02 -7.0077723605706434e-03  -4.7661017279495434e-02 5.9056581674576294e-02 3.6767606292140704e-03  -5.0341293731581339e-02 5.7101441748148525e-02 9.5741238715380955e-03  -5.2711688075207749e-02 5.4479392304399986e-02 5.3376303432972833e-03  -3.5582824288930545e-02 6.7152776793863125e-02 3.6984009203682245e-03  -4.8685456550878380e-02 6.7597018427253852e-02 -2.6886908872431449e-03  -7.2149519647060026e-02 5.3348290505043236e-02 7.5058474069241679e-04  -6.2456539519476530e-02 6.1341188278485517e-02 -4.2257049237552521e-04  -6.2814125507495974e-02 4.9110381124713970e-02 -5.0101033745022262e-03  -6.1444553655748274e-02 4.4424231432278978e-02 -3.8118155537040970e-03  -6.8435885000448893e-02 4.7405969068030664e-02 -2.6282664513337327e-03  -6.5202839985001912e-02 3.8643012589212961e-02 -4.4012971885654725e-03  -7.7944256265460046e-02 4.3840893191099635e-02 5.1619946752702759e-03  -7.3558171431295338e-02 5.1108260447924311e-02 9.2910433974260614e-03  -7.6811162488365101e-02 3.4823518444487382e-02 9.2778336206433484e-03  -8.7372979141174964e-02 2.8907267190723483e-02 1.0530347104900620e-03  -7.2238489009581131e-02 3.7114721897848896e-02 1.3353055212510711e-03  -6.6610278013252727e-02 4.4351348714843218e-02 4.9756528487409322e-04  -3.1672023507515114e-02 7.3627816843221283e-02 7.7087369449700368e-05  -2.3299345786815546e-02 7.2400523209583983e-02 -3.3403793208056890e-04  -4.9460080613893669e-02 7.4862140044775247e-02 9.0809160530228965e-03  -6.6933976224384406e-02 5.8140602488665913e-02 -4.4637432124241755e-03  -6.2191512075338205e-02 8.7482074706447546e-02 5.4963933124312853e-03  -6.5707848881041392e-02 3.7697652779950228e-02 3.9123670556860347e-03  -6.8822154722922108e-02 3.1692524627012122e-02 5.4772294055355046e-03  -5.7096703998525254e-02 5.0095823298745547e-02 5.3885061235373682e-05  -5.6973024580192683e-02 5.0293677499289084e-02 -4.2674054234012456e-03  -5.9561796187249647e-02 4.7458667407691266e-02 -8.9490671476329265e-03  -6.9722461825812876e-02 9.7127258552100415e-02 8.4514220946230890e-03  -8.7048477487431414e-02 8.2877611543951055e-02 9.2444358842646169e-03  -7.4065324925924131e-02 7.1716280552062167e-02 5.8859028300730174e-03  -4.6789114442106088e-02 6.3884803656009667e-02 1.8565346421742270e-03  -5.4779964303740762e-02 5.2776442653368907e-02 -8.7892324026062445e-03  -6.5786093493929609e-02 7.6092646992099611e-02 -7.8171088032852748e-03  -7.0940033954454862e-02 3.6920337365024800e-02 -4.9270417461061873e-03  -6.7132466288606960e-02 3.5465361516558276e-02 -8.8408217270111843e-03  -6.3527793961594262e-02 4.1679496736503084e-02 -8.6787024550001781e-03  -5.0860820981605021e-02 6.7076273029915340e-02 3.5091154910702705e-03  -4.5243832911932819e-02 6.8520783828367918e-02 9.3837624184539194e-03  -4.9772330186597193e-02 6.4434238146393069e-02 -8.5981926420762734e-03  -5.6920827825037365e-02 5.8606728699919966e-02 -3.8728321803756143e-03  -4.1253481272990875e-02 6.3871456500218304e-02 -3.8124715797679368e-03  -3.5194418778771226e-02 6.7466134552740947e-02 -4.5728961430770206e-03  -4.9597721922423427e-02 8.5575742545433153e-02 -7.9844379345185637e-03  -6.9633911586751723e-02 9.7617541888785214e-02 -7.5773299397005958e-03  -4.4866632376354958e-02 6.5755008922239122e-02 -5.1882218561655957e-03  -3.8591312894276496e-02 7.1889740324894993e-02 -8.6896885264770088e-03  -7.3685331493859266e-02 3.0906726184746762e-02 6.0658870259586543e-03  -5.4319747902981677e-02 7.4274405912908778e-02 -8.1699883905907034e-03  -1.8929843050583275e-02 8.5150600537414356e-02 1.4978341636212456e-03  -1.9979195188639210e-02 7.9117799191726720e-02 4.8076215600957482e-03  -1.0102849758703211e-01 2.6096414012072765e-02 -5.0824077930332551e-03  -8.8993833800784808e-02 4.6099777909105646e-02 -7.9411583440800199e-03  -9.4125580024025893e-02 2.7894516738277770e-02 -8.2243686917571786e-03  -7.8610110891540116e-02 9.0162267550585415e-02 5.2693989078286159e-03  -8.9030158842984486e-02 5.4950442767696679e-02 5.3379359075866970e-03  -1.0669881976814327e-01 5.4563168706505911e-02 3.8675049581976509e-03  -6.2053845397057696e-02 5.2730809189843790e-02 -8.6040832997501347e-03  -7.8850493649392575e-02 2.7605338158940493e-02 3.7031503742520205e-03  -5.2767566845713383e-02 5.4618860729924078e-02 1.9688405810007097e-03  -6.5298679042711763e-02 4.6880932952953869e-02 -8.5827120732197178e-03  -3.2551069543648496e-02 9.1463138420556145e-02 8.6915618917599198e-03  -1.0003646696954568e-01 6.4519571886326552e-02 8.9134278172262067e-03  -7.8902048750965334e-02 6.2166471889754528e-02 9.0643047600401719e-03  -1.0240515545767581e-01 2.9774804366783827e-02 2.5280026964373680e-03  -1.7375736105075819e-02 8.0958466209601704e-02 9.2314726837557128e-03  -1.9628281808253795e-02 7.3714386414717184e-02 9.4789420626618017e-03  -3.2670048836761736e-02 6.8830593875449542e-02 9.5369691440815637e-03  -7.6807356590176318e-02 3.1250215226040871e-02 -2.8775319639494858e-03  -3.8442691958652818e-02 6.5924687206479524e-02 -8.7150665963760601e-03  -6.2245312165894670e-02 6.4535873773777258e-02 -8.3771914842531627e-03  -3.0788703819067859e-02 8.4339413282566458e-02 2.3197474666804229e-05  -1.1437170725488903e-01 3.4059161081984403e-02 -4.0465540080793375e-03  -6.2009250991462463e-02 5.2443457075675236e-02 8.5818097796808463e-05  -6.5921658099552610e-02 3.7367700469253931e-02 6.7993536286017070e-05  -6.8488977942613147e-02 3.2247445866890170e-02 -2.9355778125109812e-03  -5.6762534049273804e-02 5.9519733396146204e-02 -8.5248619409658589e-03  -4.9864298381501408e-02 5.7639161290346082e-02 -8.7659715731624958e-03  -9.4791989853157288e-02 7.3393981620734017e-02 -3.7701651982240542e-03  -2.9128080700468725e-02 7.8545627566686343e-02 -2.6452158166205830e-03  -5.0876875575564452e-02 1.0871839131852641e-01 9.0171568704051717e-03  -6.0536547337550740e-02 1.0336661400151695e-01 -2.7151916570327082e-03  -7.0152876212226697e-02 2.8472780792830929e-02 9.6530444004846328e-03  -1.1663738524694489e-01 2.3010025722971911e-02 -7.6272907926229691e-03  -5.5286155137257216e-02 5.2172318232588707e-02 9.6316753420802037e-03  -1.1067790269947858e-01 4.4534129496985445e-02 8.5870927436394826e-03  -5.0540016280768124e-02 8.6571954258981482e-02 8.7302170350694441e-03  -8.1345299664043663e-02 3.6881757702013976e-02 -8.3567188214693448e-03  -6.1789235895815524e-02 4.3797682181378722e-02 4.6855380338034266e-03  -6.4943542465151688e-02 7.4489778148389960e-02 8.9138684869159261e-03  -4.4775588577976512e-02 6.1548101148785346e-02 9.5751594257788997e-03  -3.4070788344122339e-02 8.3324273497552268e-02 -8.3748351126052487e-03  -3.3336781384963050e-02 9.5120910452174551e-02 -7.9667601656311232e-03  -2.8987947954624751e-02 1.1663511421257328e-01 8.0970322063433076e-03  -2.7014079636223143e-02 9.9863261322412328e-02 8.7262043035581660e-03  -7.4243690228836548e-02 3.4512468133276561e-02 -8.3216773427112357e-03  -4.6243762576355457e-02 7.1209844569441641e-02 -8.4077815918164756e-03  -3.0871621800947852e-02 7.3603586997110337e-02 -5.0573743834155666e-03  -3.2001321143373854e-02 6.9296223542298238e-02 -8.9012158046817610e-03  -9.3795927924178471e-02 7.4283083755728258e-02 4.1431007900425317e-03  -3.1240972698212022e-02 7.6134243772378235e-02 -8.6192368077024854e-03  -4.3842687708488773e-02 6.7721593261000468e-02 -8.6305997562019961e-03  -4.4240233828061429e-02 6.2147454733111424e-02 -8.9204324938776010e-03  -2.2345372004739902e-02 7.2883358680769422e-02 -3.7789688756600039e-03  -2.5620506914732347e-02 7.1847982714734443e-02 -8.7887093645031607e-03  -2.8757897830335468e-02 7.0452285431955280e-02 -3.0759505738154262e-03  -6.1748662022394228e-02 4.4012461585102663e-02 4.5176423311630692e-04  -7.6074988816287839e-02 2.7238367270734334e-02 9.5201041062134908e-03  -9.5783189424435644e-02 2.8338245997156002e-02 8.9534484419762344e-03  -1.1441542489851773e-01 3.3309196719505156e-02 4.9976827202364398e-03  -6.8730260215483022e-02 3.1717577933752295e-02 2.1648399898023230e-03  -5.0313763566062215e-02 1.0872468962269898e-01 -7.6622551457568742e-03  -8.6895418191962517e-02 2.0430069755650586e-02 9.3314493799230829e-03  </DataArray> 
</PointData> 
</Piece>
</UnstructuredGrid>
</VTKFile>