<?xml version="1.0"?>
<VTKFile type="UnstructuredGrid"  version="0.1"  >
<UnstructuredGrid>
<Piece  NumberOfPoints="187" NumberOfCells="657">
<Points>
<DataArray  type="Float64"  NumberOfComponents="3"  format="ascii">0.7119454820819836 -1.311017197308812 0.7850254167931945  0.6711564508304207 -1.401253329984251 0.5622240771778685  0.7873485614796214 -1.551119900712338 0.747618612172079  0.509899363520301 -1.411274404689723 0.7930410904030668  1.571223386396861 -1.222896538248188 0.681768998400601  1.365943112648017 -1.134934275590741 0.4914509233146168  1.447765498390705 -1.373330410045335 0.7315215413413203  1.404410164647943 -1.149349917793486 0.7975908961567035  0.803830552736335 -1.241808787336111 1  1.027552987385453 -1.122421832866236 0.7520124683793958  0.9317589561501367 -1.126789045658179 1  0.9466024263613499 -1.337784875385508 1  1.015601792777485 -0.8204518079745813 0.6525547521204649  1.304637174418844 -0.7075626243921807 0.5186954339142219  1.054700059797406 -0.6058616406515142 0.4895215437898623  1.110028565937067 -0.5800778232130865 0.7539770568553924  0.9065780864506976 -0.7643401139982925 0.8193321493755804  0.8427521110205465 -0.5344621625620394 0.6951122958534079  0.8874756245502677 -0.4507903538350485 1  0.6565945984642327 -0.7485610582252132 1  0.7260749200787838 -0.683994037072515 0.7575866569922562  0.7862467646240011 -0.6106744323530362 1  0.4437787684872145 -1.472384709319954 1  0.3808210433871149 -1.763882641155164 0.817384939724187  0.5886194165627399 -1.607799173493189 1  0.2828443174131989 -1.737656437702833 1  0.8427521110205465 -0.5344621625620393 0.304887704146592  0.9275246612083398 -0.3706670534361827 0.2407973732256985  0.9290934823066148 -0.3654953433663091 0.5  1.254380730905587 -0.8083467088102502 0  1.452879240810067 -0.9256401028442123 0  1.469388374880087 -1.034040776775462 0.1882486755660968  1.347617246490652 -1.061163179822044 0  0.5031802934273266 -0.8594726184264059 0  0.7805047611923689 -0.9061187185566575 0.2197836778390664  0.6565945984642327 -0.7485610582252132 0  0.5790946986177532 -0.8121635823205643 0.2406591020066253  0.8638068359660822 -1.218302366084752 0  0.9324225297118618 -1.069640369270793 0.223104162955864  0.7932047642417024 -1.26389931307753 0.1963766327108795  1.030433715894798 -1.231858392111446 0  0.9080933109673303 -1.392933173756074 0.3219887364722751  0.818663626867002 -1.250496447075703 0.4758235842672084  0.5790946986177532 -0.8121635823205644 0.7593408979933747  0.7288306932309858 -0.9486137962695518 0.8304626122976658  0.7999786526575325 -0.8565217994501219 0.6452470139574003  1.157231385552274 -1.253901033215793 0.281726668262764  1.224429837858597 -1.367445394691974 0.1621926997827459  1.177855468001781 -1.310694360819405 0  1.636952961386825 -1.142804819387519 0  0.7464136245425157 -0.6592112539775661 0.464253437432927  0.9590515939106158 -1.078423956001888 0  1.189271625505363 -1.127293779066439 0  0.7450638420349176 -1.620742934143578 1  0.9598730660345802 -1.549077209085725 0.8242980760773153  0.8995443726527385 -1.515344433769769 1  0.9253516653358499 -1.762245407515976 1  1.29264339957742 -0.7108631639275693 0.248925098563288  1.064679695988678 -0.6749731916823414 0  1.119003905466543 -0.9695779869373969 0.2100492968754825  1.576997441744635 -1.215860831449986 0.4767686081794522  1.687870562227536 -1.064497214017714 0.3121204132896461  1.577555788316497 -1.215180484183672 0.2425537263387976  0.4566179955496571 -1.609390190456626 0.6989686505589768  0.4780196499422931 -1.718624147876173 0.4860276821231871  0.4598397724961487 -1.407027747603131 0.4646693967668116  0.6555930567863257 -1.664756582497279 0.5960201095882456  1.080685194586458 -1.202250007878773 1  0.580573651550607 -1.903815473393742 1  0.5734276495182083 -1.711685493650841 0.8245233371918688  0.9720734413444984 -1.373627274294348 0.6790269542916713  0.7381014911438812 -1.022860552606942 0  0.5649892703019659 -1.018153738993141 0.2065824908697158  0.6859686601772466 -1.136244635014237 0.3299139575879882  1.059531587242102 -0.5973251627738123 0.226746809598138  1.023435757713041 -0.8146736758415731 0.3189846134813204  1.297544141558148 -1.005011241379223 0.3189684790296657  0.5832887714184972 -0.8087215957258024 0.4999999999999999  1.000672008306493 -1.113805047495691 0.487632913986857  1.1929972635708 -0.8536914974626655 0.780931025369012  1.284717519815038 -1.02228507292348 0.6703955176972156  1.20351971211937 -1.239767330590945 0.7939120312707418  1.10743765731954 -1.431746180074469 0.8139666446241006  1.206663380515088 -1.269235118192567 0.5803433203994834  0.5031802934273266 -0.8594726184264059 1  0.7739143362555156 -1.072397343309636 1  1.300974086628094 -1.226302537576867 0  1.338534520264107 -1.194150655990213 0.2011991283607386  1.244666982182433 -1.191554482389109 1  1.176003996493655 -1.33611093172008 1  0.8428253757598037 -1.806356628303072 0.7017027633753112  0.6701703609710061 -1.876636608728933 0.7670361119449685  1.251368316581753 -1.54785720178133 0  1.396119646174059 -1.429062855640675 0  0.9633396945064303 -1.532543348225953 0.504411395532755  1.51815861524617 -1.287556148979825 0  1.496956996248435 -0.92836030672711 0.733478808495897  1.486803694599748 -0.9110561600863133 0.4938031200867036  0.8140359668217003 -0.928879231333442 0.4392990111823438  1.173511336853638 -0.9048826654188855 0.4957352355486239  0.4037512339627746 -1.080144681274499 0.7916997388280334  0.5315656042297237 -1.1447348656588 1  1.639622120442623 -0.7656643535348759 0.5754969080455435  1.647316553768361 -0.730739989356719 0.8042598622939813  1.764178512674736 -0.9217350799576589 0.681768998400603  0.9657215264631963 -0.9093291733414921 0  0.609932068791446 -1.364176709429583 1  1.472680754612366 -0.8169236440154841 0.189840841356636  1.773358286409876 -0.9045609312492104 0.2410240474052892  0.5038238211581905 -1.074271211065006 0.5112063182307277  0.4006956025444619 -1.24843802094553 0.6812500201025888  0.7276110770644739 -1.094877295120382 0.6732896863357209  0.4909769421302074 -1.93099433805855 0.7575947101728453  1.38956983664371 -1.075452775247462 1  1.009197349932888 -1.397681489770207 0  0.5007099757113176 -1.928041854600282 0.3180605671254946  0.6868754821181033 -1.871569165629702 0.2684565302298717  0.6868754821181031 -1.871569165629702 0.4985271366456067  1.374638822880307 -0.7269623812337992 0.7816877154595647  1.596035538136801 -0.6475556862479659 1  1.811898498971423 -0.8324572649841648 1  1.576862202356231 -0.8129917743520412 1  0.6936374543645428 -1.490116486267707 0  0.8025770010134894 -1.582936134930714 0.1789258885538291  1.45886869666133 -1.359801123807276 0.2329044500023627  1.323743981377906 -1.488460028711002 0.2983514543155433  0.7571261393854014 -1.588227948599163 0.4034342435924383  0.5105785823554512 -1.583270420542069 0.3212501110323914  0.8191217493535388 -0.9003543932255844 0  0.9108064832199552 -0.7168879053805575 0.1960696744913284  0.5834852897946156 -1.717308399664762 0.1887386398541893  0.8582612650818593 -1.79810597356713 0.2345944512541738  1.023406865707066 -1.709833810979675 0.3360631755621046  0.9134091603486951 -1.768628809422758 0.5063694337812823  0.617899748202294 -1.653792821188109 0  0.7756884647692561 -1.842242054860857 0  1.500447934349236 -0.9696295598465304 1  1.723626336383968 -0.9976028656093712 1  1.304133313638584 -1.504554087798652 0.6818852646335845  1.382549209024781 -1.440199825591361 1  1.237797879432475 -1.558994171732016 1  1.372150915982795 -0.8905933020381092 1  1.447765498390705 -1.373330410045335 0.5014756417954529  1.731901851626541 -0.9821204655507586 0  1.548728803732611 -0.6572481953988726 0.3158315927164428  1.759877105553066 -0.9297824466678363 0.4766530223320761  0.9182578431128523 -0.8646999765548649 1  1.073201216885297 -1.038090295992939 1  1.183469093176923 -0.8848763635278679 1  1.142512612418792 -0.9516293590046008 0  1.109591404263192 -1.393011847861546 0.4362628689155215  1.215386324078908 -1.577386859880171 0.4184832804743677  1.117097531608276 -0.7081609724092219 1  0.7260749200787839 -0.683994037072515 0.2424133430077437  1.038706690905149 -1.45578038790324 1  1.625815991436139 -1.156375256536797 1  1.507021645295484 -1.301126586129103 1  0.49198228108192 -1.930689371821647 0.5229837268563096  1.165552904605024 -1.618284090316855 0.5914719092900202  1.165552904605024 -1.618284090316855 0.7722986199771491  1.090497265961056 -1.673973244928521 1  1.018251277396346 -1.493874823880694 0.1811641159579966  0.9408340653944625 -1.753969892273402 0  0.7862467646240011 -0.6106744323530362 0  1.105979666019669 -1.665697729685947 0  1.679590237761743 -1.079988611500134 0.5913175450030814  0.6027785381133539 -1.359332156263882 0.2124371689903601  0.5587472371219874 -1.203112900522971 0  1.381951970976821 -0.5634760338254743 1  0.7597670703914065 -1.849457744064124 1  1.679590237761742 -1.079988611500134 0.7722204517981226  0.4999697403346577 -1.076876380065217 0  1.17903341878715 -1.607220918238119 0.2399632141173498  0.2713321621710769 -0.9576575710401055 0.4639489892092016  0.2407869516577543 -0.9669233593494102 0.2422811437659894  0.384799343308686 -1.090040125494568 0.2000785832607395  0.4195556527163921 -0.9041709201262842 0.3048123389795397  0.3315216749971926 -0.9393992819363619 0  0.4195556527163921 -0.9041709201262842 0.6951876610204601  0.3833720884367542 -1.248266169376449 0.3125100964111098  1.016841500351821 -1.713343071873639 0.6818852646335847  0.9275246612083399 -0.3706670534361827 0.7592026267743015  0.3070347646120418 -1.231266475456671 1  0.5973730345669322 -1.89871943626909 0  0.8874756245502677 -0.4507903538350485 0  0.3315216749971926 -0.9393992819363619 1  1.575155775830446 -0.7921739152598291 0  </DataArray>
</Points>
<Cells>
[...]
<PointData  Vectors="f_18"> 
<DataArray  type="Float64"  Name="f_18"  NumberOfComponents="3" format="ascii">1.3551176308300520e-02 -2.4989416663489451e-02 -1.6758283520393565e-03  1.1938627780230901e-02 -2.4868198656723958e-02 -4.3713384990514580e-04  1.1617196131235054e-02 -2.2879923296402087e-02 -1.5581660262771726e-03  9.5905628529779473e-03 -2.6521889608231899e-02 -1.7621403772011990e-03  1.8920334527637743e-02 -1.4537723724168993e-02 -1.2054797646106929e-03  1.9597273696004110e-02 -1.6083433919267254e-02 -2.1015146910525267e-05  1.7379816667763025e-02 -1.6331816116219974e-02 -1.4968167652000366e-03  1.9467378772426505e-02 -1.5743100420394354e-02 -1.8659678999547692e-03  1.5604866987557121e-02 -2.4027414036399911e-02 -2.9590499630007179e-03  1.8964553972316816e-02 -2.0544357307911529e-02 -1.5558365360262031e-03  1.8390086018376956e-02 -2.2163962453361153e-02 -2.9691728611826013e-03  1.5569083518685552e-02 -2.1720652857426505e-02 -2.9770738774744206e-03  2.4336723481145919e-02 -1.9523882208276406e-02 -9.0201677151219501e-04  2.4985963284047223e-02 -1.3374659727414114e-02 -1.4550889331187098e-04  2.8541440701408547e-02 -1.6311752625368763e-02 -4.4400116351391885e-06  2.8562720664229789e-02 -1.4848283456546520e-02 -1.4838736246186837e-03  2.5636715251253640e-02 -2.1548101045376696e-02 -1.7544556777843508e-03  3.2506786313072675e-02 -2.0530831579395965e-02 -1.1521389031826309e-03  3.4449231891770023e-02 -1.7372530537948488e-02 -2.6981169661936060e-03  2.5381750462892424e-02 -2.9038411926787879e-02 -2.6238223770293310e-03  2.8029245534186814e-02 -2.6454525327844782e-02 -1.5354232708126669e-03  3.0331912290136431e-02 -2.3493414363387026e-02 -3.0081359761243267e-03  8.0424142823721755e-03 -2.6639673086014028e-02 -2.9425239466179857e-03  5.2817044327036463e-03 -2.4579843376217939e-02 -1.9520698913181333e-03  8.9214625736205311e-03 -2.4422803815116110e-02 -3.0178852571274483e-03  4.0235978806845776e-03 -2.5232395764290955e-02 -3.0214114733971712e-03  3.2520337120933385e-02 -2.0532435775776486e-02 1.0183920578786304e-03  3.5573523015845238e-02 -1.4184427356595416e-02 1.4300482426033601e-03  3.5559429186395944e-02 -1.4001104943511400e-02 -1.5687696823262690e-05  2.3827178853638369e-02 -1.5263581067501022e-02 2.7992829669897757e-03  2.1821158293288880e-02 -1.3724402715666151e-02 2.8754245097534358e-03  2.0617411914509953e-02 -1.4361458440262730e-02 1.7394950014282097e-03  2.0368012570561048e-02 -1.5929235253684247e-02 2.8490670802337470e-03  1.9506348990192168e-02 -3.3179324991264199e-02 2.7430758036108660e-03  2.1802409007904731e-02 -2.5227149839817064e-02 1.5804843543639605e-03  2.5547454481658349e-02 -2.8986996009433039e-02 2.6674905290486267e-03  2.2440943974027319e-02 -3.1261820439555346e-02 1.4808562396253643e-03  1.6410269164770567e-02 -2.3051506012153188e-02 2.8136972230728250e-03  1.9312484770145386e-02 -2.2041072134647028e-02 1.5242967506119106e-03  1.5020673723629294e-02 -2.3962071681750654e-02 1.7473158498882923e-03  1.7395990826063717e-02 -2.0640491917767567e-02 2.8274867846278954e-03  1.4425559321133735e-02 -2.2041525838742811e-02 9.6329715100065643e-04  1.5537862623156548e-02 -2.3699076309344570e-02 1.5095021584241145e-04  2.2483655814018323e-02 -3.1675013087345660e-02 -1.3990358025463970e-03  2.0417316158891623e-02 -2.6353373382989577e-02 -1.8649138781502005e-03  2.3062888041190076e-02 -2.4665285102277962e-02 -8.2740584105860733e-04  1.7632747843308115e-02 -1.8986845962729249e-02 1.2216791111624137e-03  1.6635692659608493e-02 -1.8470301300215569e-02 1.9314821787126983e-03  1.7097021121067223e-02 -1.8897194982240552e-02 2.8711914417698737e-03  1.9602604711121185e-02 -1.3481074872884231e-02 2.8906323281110741e-03  2.8884203141431492e-02 -2.5276905635174426e-02 2.8922182529846535e-04  1.9267992612789667e-02 -2.1591822676480788e-02 2.8121995509530098e-03  1.9345555314693667e-02 -1.8288379177908758e-02 2.8359626612258961e-03  1.0607514739345432e-02 -2.3025703081670023e-02 -3.0554931783515955e-03  1.3226218186200839e-02 -2.1233761699616778e-02 -2.0045049150297172e-03  1.3115903922900279e-02 -2.1947530300204434e-02 -3.0804291648737965e-03  1.1108737126265056e-02 -2.1171256221156981e-02 -3.1323917272856115e-03  2.4989423036110119e-02 -1.3656934418235818e-02 1.3891955057440128e-03  2.7127728014731681e-02 -1.7063323755197077e-02 2.7124760386648423e-03  2.1552598165633180e-02 -1.8535465496954815e-02 1.6430700051895688e-03  1.9012844272491849e-02 -1.4396155600538595e-02 1.9914257923399665e-05  2.0215727358280273e-02 -1.2489595817645818e-02 1.0208717520751843e-03  1.8954868639256744e-02 -1.4406372872300423e-02 1.4709173661676292e-03  7.1563642907433566e-03 -2.5293368943845186e-02 -1.2626345869411312e-03  6.7963345072603112e-03 -2.4373154732265728e-02 2.6350341950498340e-05  8.8289170715852589e-03 -2.7106250874113912e-02 1.2430998377579406e-04  9.2741412335301619e-03 -2.3498197714145217e-02 -6.3863063939185094e-04  1.8045889437926288e-02 -1.9936467126230241e-02 -2.9914609420155416e-03  6.9917769329043214e-03 -2.2908565950494918e-02 -3.1494624392597870e-03  7.9794506341727151e-03 -2.3813721670400006e-02 -2.0080431559224908e-03  1.5156405632533846e-02 -2.1359169901360841e-02 -1.1064832022892751e-03  1.8663688319869552e-02 -2.5929835203949286e-02 2.8250402915443291e-03  1.6451836907024692e-02 -2.9779750028096512e-02 1.6836141960820121e-03  1.5977663647749336e-02 -2.6330485353728967e-02 9.2536122009735427e-04  2.8780077092195339e-02 -1.6044440845373247e-02 1.5090999170741385e-03  2.4293044939445705e-02 -1.9288760459977485e-02 9.3961600506889723e-04  2.1071028311332774e-02 -1.6137717359019286e-02 9.8505089550100550e-04  2.2261053204686802e-02 -3.1148725257565953e-02 3.7874639330367391e-05  1.8909213093397298e-02 -2.0956102681623654e-02 2.4143988025279177e-06  2.3346601643557698e-02 -1.6598517939148922e-02 -1.6921939119877191e-03  2.0839796710069389e-02 -1.6434641586657868e-02 -1.0589878373521119e-03  1.8028998573998423e-02 -1.8427940254637631e-02 -1.8010472386524572e-03  1.5407529355738086e-02 -1.9800175704152698e-02 -1.9679426741288303e-03  1.7679377913428124e-02 -1.8449858586024478e-02 -5.2987805618083365e-04  1.9572308555204115e-02 -3.3443344850445769e-02 -2.4326655369604992e-03  1.8144666723748232e-02 -2.5044445629510168e-02 -2.8585818911320399e-03  1.8436707294810027e-02 -1.7238174766643386e-02 2.8911703332798102e-03  1.8847266968251942e-02 -1.6669079552085412e-02 1.6880736979005672e-03  1.8736136388083111e-02 -1.7848669687418686e-02 -2.9934891479518550e-03  1.6855458712447948e-02 -1.9003953241597104e-02 -3.0403266070494045e-03  1.0069217828990824e-02 -2.1523251236553052e-02 -1.3214503108994430e-03  8.0272619294778323e-03 -2.2435152582286334e-02 -1.7035694028029286e-03  1.5051607896987871e-02 -1.8528571459408651e-02 2.9372839537859506e-03  1.6696805159889725e-02 -1.6946095206993927e-02 2.8870667123337976e-03  1.3423290654381193e-02 -2.1183526548220540e-02 -1.1960630964561780e-04  1.8258247385046358e-02 -1.5322026109955219e-02 2.9305455028828618e-03  2.1722398657213957e-02 -1.3340759581653759e-02 -1.4796411322915617e-03  2.1890848115223429e-02 -1.3225988253913672e-02 -4.2583770658432396e-05  2.1416232883134365e-02 -2.4381244942113613e-02 3.6100805732959567e-04  2.2594507885675932e-02 -1.7307235990614331e-02 -4.4648728561567843e-05  1.2007882307032853e-02 -3.2105436180320003e-02 -1.6509160306686739e-03  1.3503464277613418e-02 -2.9176338301702368e-02 -2.8245928215716578e-03  2.2777285882001466e-02 -1.0447136200568021e-02 -5.3189898033014112e-04  2.3052078119476526e-02 -1.0021836580928688e-02 -1.8961516072758149e-03  2.1208448010380757e-02 -1.0806472945573617e-02 -1.2164934299974542e-03  2.2422800328321411e-02 -2.1059714356909336e-02 2.7882189796831929e-03  1.1671094375933420e-02 -2.5905566569120006e-02 -2.9409407728811766e-03  2.2887212652227370e-02 -1.2499815573515658e-02 1.7714750589927217e-03  2.1263290549561970e-02 -1.0608092438161843e-02 1.4336905580139459e-03  1.4206378204556371e-02 -3.0363334358072282e-02 -1.0764675614732397e-04  9.4487526589010634e-03 -2.9563927657266925e-02 -1.0309641554140892e-03  1.7137221554143312e-02 -2.5786553833370914e-02 -1.0047128099343469e-03  5.8355956101578000e-03 -2.3110385176230631e-02 -1.6300352671844022e-03  2.0286272888156112e-02 -1.5558183508059060e-02 -3.0298112316178589e-03  1.5178732555633425e-02 -2.0849089965576901e-02 2.8677845529400986e-03  5.9382730930721316e-03 -2.3055964654987958e-02 1.0077010871941188e-03  8.1925073156984933e-03 -2.2343026675191890e-02 1.2641936264892071e-03  8.1935502285048131e-03 -2.2375431218187691e-02 -7.6034597757492062e-05  2.4402719237006477e-02 -1.2741981065317314e-02 -1.6923842425691680e-03  2.4009613833007534e-02 -9.5518008803112588e-03 -3.0008768999946695e-03  2.1741548510498272e-02 -9.7729136523522914e-03 -3.1147766006057662e-03  2.2656768382584756e-02 -1.1502410373294435e-02 -3.0716889749943114e-03  1.1220719320904094e-02 -2.4021028844256338e-02 2.8749256754586052e-03  1.1447422441610752e-02 -2.2557586625009653e-02 1.8195546824114851e-03  1.7485535099619483e-02 -1.6147423202250002e-02 1.4992096130563943e-03  1.5903958871477761e-02 -1.7691058906166464e-02 1.1131653985237970e-03  1.0989331170758222e-02 -2.3008191703339190e-02 4.6257994406444545e-04  8.0465909741796269e-03 -2.5097168908639153e-02 9.9392867834634333e-04  2.2060929070773103e-02 -2.4294798805796169e-02 2.8236235469323739e-03  2.6804474568878495e-02 -2.1090129927515033e-02 1.7051228427958141e-03  8.0141450984225759e-03 -2.3697788003481161e-02 1.7820343416605339e-03  1.0273266284561305e-02 -2.1455228396206050e-02 1.5126298566438072e-03  1.2246496046501807e-02 -2.0406035942796857e-02 8.8802826187044147e-04  1.0965955818980530e-02 -2.1155544168211235e-02 -1.4378734349752040e-04  8.8750440534579398e-03 -2.3803435560011681e-02 2.8767786486729539e-03  9.2460750802255288e-03 -2.1886642732265420e-02 2.8633914236571986e-03  2.1312585443841247e-02 -1.3610689350302903e-02 -3.0602536331855788e-03  2.0761882958129092e-02 -1.1820921554256850e-02 -3.0806214013481999e-03  1.5705923397252450e-02 -1.7961457880940047e-02 -1.1704244199412159e-03  1.6600210039447595e-02 -1.7101371547572120e-02 -3.1170901719655328e-03  1.4950991410913847e-02 -1.8710284455831571e-02 -3.1781028637050315e-03  2.2443582594743203e-02 -1.4431634065355883e-02 -2.9793984077202337e-03  1.7355810523307785e-02 -1.6269712536946902e-02 -1.1300234472785162e-04  2.0785224997617292e-02 -1.1607123113602813e-02 2.8874220951199251e-03  2.4119468149069252e-02 -1.0035235027609581e-02 1.0400696946088219e-03  2.1123787358471331e-02 -1.0934483899103103e-02 3.2913958568337690e-05  2.3408796678830581e-02 -2.1979049668320254e-02 -2.8746694546388407e-03  2.0497822797561321e-02 -1.9612470351697654e-02 -2.9913988556550066e-03  2.2955762231752819e-02 -1.7021197257802625e-02 -2.9279236347660741e-03  2.1849774262862359e-02 -1.8104668601701103e-02 2.8021006715450098e-03  1.5823888944030657e-02 -1.9737547644247830e-02 2.9166220150014083e-04  1.4610694183457109e-02 -1.8833571449301277e-02 3.6321568978457973e-04  2.6160079226303229e-02 -1.6421441761029460e-02 -2.8731711553815508e-03  2.7955834942876671e-02 -2.6365230741070188e-02 1.4909065837350125e-03  1.4818569415371872e-02 -2.0591141597285478e-02 -3.0282998156322860e-03  1.9552073639382654e-02 -1.3704573549103975e-02 -3.0586607324959388e-03  1.8193041475358086e-02 -1.5546882465591388e-02 -3.0897202653460271e-03  5.8337613860784572e-03 -2.3099293083492654e-02 -2.3610322832093511e-04  1.4040014239495593e-02 -1.9279833091725956e-02 -6.1926406142133721e-04  1.3981723734614553e-02 -1.9306697350611170e-02 -1.7500588180158270e-03  1.3073069751583077e-02 -2.0004547623880268e-02 -3.1103747552584915e-03  1.4170267413819090e-02 -2.0660516953742134e-02 1.8322626643022175e-03  1.1272560960131654e-02 -2.0981794596875138e-02 2.9371028282034559e-03  3.0450334148208257e-02 -2.3531691189979075e-02 2.6771397617478044e-03  1.3203555782216192e-02 -1.9777282854151507e-02 2.9000582204705893e-03  2.0127323651804627e-02 -1.2714141069625959e-02 -6.2499601180544026e-04  1.1500684033465982e-02 -2.5920961412572122e-02 1.6252879603052201e-03  1.2968106882544333e-02 -2.7966999108638389e-02 2.7610155606791757e-03  2.6311009929622785e-02 -1.0586669496351094e-02 -2.9506928933207420e-03  9.0907789645153676e-03 -2.2073821366448428e-02 -3.0952211581950235e-03  2.0125844285011327e-02 -1.2715359283504112e-02 -1.7297087474977698e-03  1.4136373280538584e-02 -3.0402123846158521e-02 2.7909643239398593e-03  1.4115350283458377e-02 -1.9154571205515555e-02 1.4793300945714542e-03  1.0516542393523965e-02 -3.6888645251439041e-02 2.2293086028640351e-04  9.2633234009593512e-03 -3.7302071423291401e-02 1.6103291814945722e-03  1.1436304850620253e-02 -3.2175363101070151e-02 1.6645993384841711e-03  1.6214508549133547e-02 -3.4879739168147100e-02 1.1528066244313388e-03  1.2617411935263433e-02 -3.6214699635766810e-02 2.8565065976861917e-03  1.6242105356145634e-02 -3.4807798019155400e-02 -1.0917849807463918e-03  9.1414735049529221e-03 -2.9744784691064778e-02 1.0234584835739349e-03  1.2168733034958785e-02 -2.0480042246970146e-02 -1.2027071960080242e-03  3.5774910475646918e-02 -1.4150503758892402e-02 -1.4750948628723668e-03  7.6226213408978434e-03 -3.0959783132003760e-02 -2.8511597212662709e-03  7.1321746707609310e-03 -2.2731303237548642e-02 2.9380104280387889e-03  3.4459097620729330e-02 -1.7522153686630414e-02 2.6538780152311164e-03  1.2824648964330543e-02 -3.6274937066968813e-02 -2.7671415370730331e-03  2.2790175266947682e-02 -1.1284855233956777e-02 2.8523301222126676e-03  </DataArray> 
</PointData> 
</Piece>
</UnstructuredGrid>
</VTKFile>