<?xml version="1.0"?>
<VTKFile type="UnstructuredGrid"  version="0.1"  >
<UnstructuredGrid>
<Piece  NumberOfPoints="187" NumberOfCells="659">
<Points>
<DataArray  type="Float64"  NumberOfComponents="3"  format="ascii">1.103193596384578 0.3504086635323349 0.7926247744809052  1.167609977272698 0.4754420500101144 1  0.9531946147586513 0.2860445573368379 1  1.298466289634289 0.2582810036338386 1  1.334629349047023 0.1545402339819274 0.6080677862736639  1.481952171293317 0.069454883228632 0.4891924348618718  1.292228821875236 0.3076565757391458 0.3322186037030394  1.499512864842357 0.3016748379228968 0.4450803538138309  1.059531587242102 -0.5973251627738123 0.226746809598138  1.234689442690562 -0.4855157749746795 0  1.12700915308356 -0.3265270678978057 0.1991237339620514  1.228727303117767 -0.459331046989373 0.3236051145881703  1.304637174418844 -0.7075626243921807 0.5186954339142219  1.054700059797406 -0.6058616406515142 0.4895215437898623  1.29264339957742 -0.7108631639275693 0.248925098563288  1.438290730876674 -0.4534288042395038 0.1837168804337665  1.519369205000765 -0.6057271090750227 0  1.685940558953262 -0.4500196176801594 0.2303894085313369  1.548728803732611 -0.6572481953988726 0.3158315927164428  1.183651748105934 -0.0883654662417532 0.1686858213653584  1.475518248201104 -0.03253804452700697 0.1856409670857923  1.244700343070279 0.08518987797507366 0.2297974176709325  1.302253607553284 -0.1432650666920791 0.3118732805312475  1.404571026518731 -0.5037511239056995 0.5348683201513614  1.691569412576089 -0.5609133899741244 0.4730081079198554  1.639622120442623 -0.7656643535348759 0.5754969080455435  1.460188519029665 -0.1629806199680669 0.5487051496768689  1.300998876090121 -0.06620015533026624 0.701459469341089  1.273734645489973 -0.3733223405901023 0.6677503680638732  1.462819035581377 -0.247240831275101 0.7930628205732373  1.670473167333107 -0.1571316353029762 0.6661267788475292  1.979883779915309 -0.2042434100745073 0.712108154714385  1.818614516256198 -0.02030257729722755 0.8224734275766558  1.718772121177439 -0.3866834318575563 0.7667746127709867  1.677712194062701 -0.09696593309475177 0.3004554327500731  1.692680460452608 0.5205670870368633 0.4884510932914654  1.917169598334859 0.5365510013527777 0.5234405719839987  1.863111706926676 0.7147559870323206 0.7298487012854733  1.917475790756809 0.5355416202106846 0.7116028463733042  1.465303716475479 0.1555907954635532 0.7693066961510502  1.492196561710194 -0.008262575110031561 1  1.260567092565374 0.007573152124507587 1  1.695334600029578 0.4618342482922941 1  1.769735857858306 0.3884762685421728 0.7884801425292696  1.890226041061335 0.6253720062608139 1  1.944583770390953 0.4461785874200146 1  1.596035538136801 -0.6475556862479659 1  1.647316553768361 -0.730739989356719 0.8042598622939813  1.68486642811149 -0.4847299792061015 1  1.880033966812036 -0.6589707722934499 1  1.589046394326455 0.1734990304878107 0.2392673584508079  1.590138388628021 0.4593370694758154 0.2945152002274293  1.75161262238811 -0.3424365565861829 0.5282437615390115  1.963304819553189 -0.3725724194805271 0.4090317868572118  1.914590748157589 -0.5450523310742783 0.3184745400471098  0.9812655729033243 0.1902138304267845 0.7574987250233383  1.215050768910942 0.1386989957370904 0.8003094172228006  0.9901015080865125 0.1005010749780065 1  1.464528240804089 -0.2828999629988727 0  1.534419107269049 -0.249970942395027 0.2134224265406987  1.633398862698542 4.551914400963142e-15 0  1.74700851512454 -0.1466881081279602 0  1.972468461473286 -0.2795324016947447 0  1.990822820491096 -0.09317746723157688 0  1.77461743563473 -0.2526246580210096 0.1862321566955051  1.98001051630629 0.2029566339025678 0.5236088117471787  1.760989227500415 -0.00528833666817291 0.5050452009358164  1.980906185775178 0.1938627491739629 0.3183348412008982  1.999999999999999 6.562936821510024e-15 0.4985104204901593  0.9851205740732167 -0.1510733467044346 0.5353394748175133  1.179472118936147 -0.275639623696938 0.4699018881232729  0.9994124437091498 0.005965559133313763 0.3049757398701156  1.211266277324824 0.05376660925060736 0.4750222709998441  1.722788334576396 0.2269019344391441 0.4623229700254903  1.532068162910535 -0.3538891104669777 0.4205296918786089  1.464362911603639 0.2828702393186497 0  1.691255191910918 0.3236620266614035 0  1.235813838380573 0.2458186562328234 0  1.099182398949108 0.3880552209149545 0.1957914270122534  0.9801620048072415 0.1971449862985168 0.2440297745786687  1.098809470646287 0.4309227919496545 0.4970820672189703  0.9807852804032302 0.1950903220161293 0.5  0.9994124437091498 0.005965559133313836 0.6950242601298845  1.761211515941985 0.3028647779885489 0.2630824387328117  1.91452828856335 0.5452582327623938 0.3183348412008885  1.963304819553187 0.3725724194805456 0.4088381320164703  1.315813659229962 0.4642700054059137 0.190741969146883  1.972468461473285 0.2795324016947586 0  1.963304819553187 0.3725724194805407 0.2278315503853166  1.60847672517662 0.2976949531213646 1  1.758219163862446 0.5058320789461144 0.1873275422099707  1.464759749160692 -0.2279365418393593 1  1.60218884797417 -0.3186951767398252 1  1.396392869618368 -0.3890520924672942 1  1.939487733266301 0.4629779704363389 0  1.417000388060469 -0.4785679949273929 0.7990159217257774  1.57182247208157 -0.573028538950262 0.6727634197640624  1.965032792437917 0.3550280163567101 0.6879528036207221  1.551045726738103 -0.3625086508181027 0.6344933565110418  1.270372303020529 0.3399894720193283 0.6755547641879112  1.602160287285755 0.3797090771718592 0.6428539477659331  1.374638822880307 -0.7269623812337992 0.7816877154595647  1.741278588091689 0.126947386673496 0.7075978800613815  1.998265741253273 -0.01760822455171618 0.729856113257398  0.9566434479642242 -0.2746752779217476 1  1.15960963244366 -0.133784674508656 0.813768916263945  0.9819596813949061 -0.1831664286442689 0.7574312328675253  0.991266036546923 -0.08867741909823949 1  0.9275246612083399 -0.3706670534361827 0.7592026267743015  1.083789219068689 -0.4208873855954158 0.843718620744255  1.651706286231434 -0.492963913758677 0  1.69133149318951 -0.3236757444728861 0  1.6011203483499 -0.009784525300421199 0.8111175192995834  1.722264110875199 -0.01251126431956822 1  1.742111332403817 -0.1969314331959243 1  1.915304617909812 -0.5426990178824754 0.5362464328982399  1.961570560806462 -0.3901806440322502 0.6880758838225918  1.992543541649014 0.07570669212566944 1  1.989102099333176 -0.1106482423374983 1  1.980906734726085 -0.1938571755818702 0.3184745400471098  1.999999999999999 7.030017234740516e-15 0.2684303249375376  1.472680754612366 -0.8169236440154841 0.189840841356636  1.575155775830446 -0.7921739152598291 0  1.684658001812216 -0.707206143290794 0.1871133687462477  1.885130003936687 -0.6421713892771256 0  1.939487733266305 -0.4629779704363262 0  0.9901015080865125 0.1005010749780065 0  0.9531946147586513 0.2860445573368379 0  1.110028565937067 -0.5800778232130865 0.7539770568553924  0.9290934823066148 -0.3654953433663091 0.5  0.9256196219250848 0.3769471263237471 0.6950242601298844  1.769613665775187 0.05997591630620478 0.1684085184033754  1.970747740315366 -0.2970031768006661 1  1.764178512674736 -0.9217350799576589 0.681768998400603  1.852895194671704 -0.7484353143731675 0.5014860358011748  1.852895194671704 -0.7484353143731672 0.7315421186961406  1.820174014213996 -0.8169748649255524 0  1.858012708296992 -0.7315651328223709 0.270153780587444  1.990822820491094 0.0931774672315908 0  1.742593188394772 0.1709180888880761 1  1.731901851626541 -0.9821204655507586 0  1.421858507630868 0.5458021515535201 0.7388856714641274  1.441408417263395 0.372870218740492 1  1.211168023066412 0.540194530300085 0.7960425385136159  1.300711656090317 -0.2425005443680098 1  1.811898498971423 -0.8324572649841648 1  1.980013336132633 -0.2029280037252451 0.5237366283853655  1.354488390167804 -0.10560864479399 1  1.661746245061362 0.5816837277146546 0.7663103395431662  1.094939503450844 -0.5311189597851912 0  1.357588177110721 0.6051791325630997 0.4890122966951662  1.908887973030375 -0.5638518612336261 0.7589171845960132  1.934391696141654 -0.4797773534526505 1  1.974189182631204 0.2620616265888372 1  1.963304819553189 -0.372572419480527 0.2279172932370081  0.991266036546923 -0.08867741909823949 0  1.675712442972969 0.5076096835010768 0  1.885130003936683 0.6421713892771383 0  1.773358286409876 -0.9045609312492104 0.2410240474052892  0.9566434479642242 -0.2746752779217476 0  0.981959681394906 -0.1831664286442689 0.2425687671324747  1.759877105553066 -0.9297824466678363 0.4766530223320761  1.117097531608276 -0.7081609724092219 1  1.17332786419343 -0.4614164932755894 1  0.9275246612083398 -0.3706670534361827 0.2407973732256985  1.326819405245446 0.007980982327727537 0  0.8818750233254947 0.4612683417535055 0  1.229886675696233 0.5007899141836832 0  1.158873917003066 0.3715846019556962 0  1.605658537252647 0.6244509830031152 1  1.858012708296987 0.7315651328223847 0.4985186121010893  1.654707948355699 -0.6668018593030738 0  1.238811424842835 -0.2309781201142494 0  0.8874756245502677 -0.4507903538350485 1  1.757277036224743 0.3216215622190277 1  1.18691889078285 0.007119794952739233 0  1.381951970976821 -0.5634760338254743 1  0.9256196219250847 0.3769471263237471 0.3049757398701155  0.8874756245502677 -0.4507903538350485 0  1.388222600345667 0.5481825370432527 1  0.8523194685862787 0.5165628955080167 0.5353394748175138  1.408994663971455 0.4584005427637182 0  1.254380730905587 -0.8083467088102502 0  1.064679695988678 -0.6749731916823414 0  1.209271688098489 -0.1289204172949369 1  1.828449529456563 0.8014924648669517 1  0.8818750233254947 0.4612683417535055 1  </DataArray>
</Points>
<Cells>
[...]
<PointData  Vectors="f_18"> 
<DataArray  type="Float64"  Name="f_18"  NumberOfComponents="3" format="ascii">1.0087488791296791e-01 3.2963963604277509e-02 -4.7957950141343025e-03  9.2670593696382850e-02 3.8444009060324399e-02 -8.2672786953200180e-03  1.1416799625937978e-01 3.5188139571467741e-02 -7.4269913861444437e-03  9.4581014117673418e-02 1.9698997840518175e-02 -8.3121504923151495e-03  9.3998394588995074e-02 1.1869895845009156e-02 -2.0878532535161228e-03  8.8292968764768553e-02 4.8106935266835991e-03 9.7614874805870976e-05  9.2761220434736391e-02 2.2868960914003037e-02 2.7575261344958937e-03  8.4855848857002966e-02 1.7985155767783107e-02 9.0792474407915219e-04  8.9148309050785787e-02 -4.9673268708827503e-02 4.5172401605484622e-03  8.9412828665523872e-02 -3.4542914203913984e-02 8.3895347743461936e-03  1.0055161487882509e-01 -2.8687326679044785e-02 5.0675874058540692e-03  9.0134982636654717e-02 -3.3080557031086644e-02 2.8310519422229544e-03  7.7831341999323470e-02 -4.1649519645593672e-02 -4.3576491284164228e-04  8.8448587647318555e-02 -5.0499448951909783e-02 5.8493276168570492e-05  7.7831234528932230e-02 -4.2503793108486398e-02 4.2127591858427578e-03  8.3632945095907352e-02 -2.5794035556095243e-02 5.4121555980354546e-03  7.7402555659941807e-02 -3.0323051250324841e-02 8.5099925496212210e-03  7.7207316113596922e-02 -2.0059768418581564e-02 4.5226886785098182e-03  7.5309624134278025e-02 -3.1331038725000725e-02 3.1388626828780910e-03  1.0354731313579582e-01 -6.9474764944384825e-03 5.5219532072002366e-03  8.8758898284788543e-02 -1.1207772512229397e-03 5.2214458390626986e-03  9.9753482226606405e-02 7.4975015564121067e-03 4.5813274057368257e-03  9.5911493720976834e-02 -9.5807150584571055e-03 3.2006983581863860e-03  8.3200948999450172e-02 -2.9399797049110298e-02 -8.3610184385084132e-04  7.5066713891500797e-02 -2.4215859611971060e-02 2.3703114955221931e-04  7.1213927008173208e-02 -3.2655844677318017e-02 -1.6895584378411911e-03  8.8795224062740513e-02 -9.1929499412461476e-03 -9.9637771111863436e-04  9.6955597089940782e-02 -4.1252790406787528e-03 -3.3308683239990796e-03  9.1749213093877346e-02 -2.6391078607681084e-02 -2.9915235370336995e-03  8.7488437882960110e-02 -1.4199523580421347e-02 -5.2950479075496194e-03  8.1644841019771069e-02 -7.0706607824528910e-03 -3.1566084045440142e-03  7.4322707075392111e-02 -6.9780020737168656e-03 -4.3315282311317087e-03  7.8435135708342374e-02 -1.7655638132583169e-04 -6.1044610003597160e-03  7.7866342589581444e-02 -1.6833944679458271e-02 -5.0674160151973902e-03  8.1514558625413944e-02 -3.9724677414630528e-03 3.1918726990915066e-03  7.5809224640354902e-02 2.4175495576016923e-02 -1.4397291768196205e-04  7.1920296277259294e-02 2.0933825143979082e-02 -7.1059688009540679e-04  6.9673750575298038e-02 2.7602648945150850e-02 -4.5795842719160706e-03  7.2005461526177247e-02 2.0852271821987081e-02 -4.3179871250406451e-03  8.8613164093736277e-02 1.0184282995052030e-02 -4.7681839367325167e-03  8.8681777996329661e-02 1.5814362970105247e-04 -8.9528586736096587e-03  9.9972205525891839e-02 1.3578783612131502e-03 -8.4120149830998990e-03  7.7355874747288930e-02 2.1825793965633177e-02 -9.2024759630752271e-03  7.6706291188972445e-02 1.7587484406944225e-02 -5.4562149936654963e-03  7.1221830055226504e-02 2.4515079728205887e-02 -9.6209955548016580e-03  7.3101613157486173e-02 1.7550086751121827e-02 -9.6159018649390783e-03  7.5212913683106342e-02 -2.9906262481620399e-02 -9.2240101478709355e-03  7.2158575487760709e-02 -3.1360707508664210e-02 -5.8726661017161211e-03  7.7195451490349204e-02 -2.1499808271242603e-02 -9.2972641024970590e-03  7.0811710228024738e-02 -2.4223497848623505e-02 -9.4925498403598870e-03  8.3744698198222639e-02 9.9757913359088592e-03 4.4747032557164723e-03  7.9232746184205116e-02 2.3577963692209398e-02 3.3240706844421546e-03  7.7555117233982673e-02 -1.4463548548874995e-02 -7.8463457844614036e-04  7.3121836075909066e-02 -1.3054146464778114e-02 1.3083177665265200e-03  7.1776061938933822e-02 -1.9668925657902615e-02 3.0081426424442333e-03  1.1608306377617422e-01 2.3423266214764593e-02 -3.9298482067049133e-03  1.0104701405440845e-01 1.2323119332187479e-02 -5.1608303310369513e-03  1.1911729092806460e-01 1.3582881986392372e-02 -7.6084835128366916e-03  8.6767323174890373e-02 -1.5966127709599744e-02 8.6455268842234451e-03  8.4667635238041772e-02 -1.3183985732805785e-02 4.9364204699560770e-03  8.3205618838442769e-02 9.3413069145471957e-04 8.5873314072536754e-03  7.9525092036298609e-02 -5.9029100161698171e-03 8.7455719247723860e-03  7.3828768341406642e-02 -9.6981529054851103e-03 8.8506410185966358e-03  7.4361884887823082e-02 -2.6914990943533168e-03 8.6596060124452465e-03  7.7923932843731766e-02 -1.0370273163109799e-02 5.3467620658091868e-03  7.4144945032993126e-02 8.4203466336201273e-03 -7.1650911781916430e-04  7.9615861111450192e-02 4.8318440178080839e-04 -3.7724769146056512e-04  7.4324009339411981e-02 7.9162409495568530e-03 3.0159061231515307e-03  7.4477547189962190e-02 6.8351994628117088e-04 -3.4175746181195612e-04  1.1702296421933164e-01 -1.7074913244677928e-02 -1.1886101092941434e-04  9.9238566582647333e-02 -2.2961518207244611e-02 4.0649384984287572e-04  1.1824302667335490e-01 1.4704264889195480e-03 3.0894571971145464e-03  1.0235818282800702e-01 5.1348357331080481e-03 2.3264582988332064e-04  7.9373986568922777e-02 1.1046158038116398e-02 3.8022381171288583e-04  8.3057451783311989e-02 -1.8501021410168603e-02 1.2783273635241714e-03  8.6668014947352268e-02 1.7668219846422490e-02 8.5594312330687702e-03  7.9142335033909245e-02 1.5867259146720516e-02 8.7255353611737415e-03  9.7471286427963863e-02 2.0331879180670129e-02 8.3569887092621257e-03  9.9268760117665999e-02 3.6023717093292898e-02 4.9110165819741579e-03  1.1552639878390560e-01 2.3957999996628388e-02 4.2287261734640872e-03  9.6952932109145920e-02 3.9394350308061023e-02 5.3332271770770971e-05  1.1540402696800660e-01 2.3536781496776113e-02 1.1820123239493424e-04  1.1826845131458866e-01 1.0936835500484376e-03 -2.9732349821019436e-03  7.7906940329138641e-02 1.4045280485638759e-02 4.0943812244018446e-03  7.1762492758849869e-02 2.1255729965178528e-02 3.0256743304004478e-03  7.3082111134594965e-02 1.4641289866233250e-02 1.2850903864051130e-03  8.6932708031846689e-02 3.1585768702974998e-02 5.4316619067197027e-03  7.3877498605082859e-02 1.1386338818183475e-02 8.7562526703859854e-03  7.3091131303743589e-02 1.4663818944781751e-02 4.7000962145473217e-03  8.2174490575769435e-02 1.5919057937995161e-02 -9.0651387085212299e-03  7.4795898567870112e-02 2.2333882009056696e-02 5.4577214704848182e-03  8.8081133658401006e-02 -1.3116489175792832e-02 -8.7633275572614015e-03  8.2114016396152775e-02 -1.5631023685667298e-02 -9.1996540990673635e-03  8.7212438580592577e-02 -2.3881473778106076e-02 -8.9846992395958385e-03  7.2556092695352334e-02 1.8168385045313297e-02 8.7795286577518200e-03  8.3665682284881929e-02 -2.7609317481451116e-02 -5.4673806406698409e-03  7.7214564887241599e-02 -2.7390462508519519e-02 -3.2831921719205831e-03  7.3457918024672150e-02 1.4040917606648985e-02 -3.7978976462800726e-03  8.2283365565487362e-02 -1.8606730116895544e-02 -2.6489604347998911e-03  9.3042100108113535e-02 2.5677969188708950e-02 -3.0421542541664228e-03  8.0652398123114893e-02 1.9892503521972058e-02 -2.6993046419924358e-03  7.6193207189126116e-02 -3.9766575225154456e-02 -5.1499856372429270e-03  7.9708218321915159e-02 6.5940714499194090e-03 -3.9846636019395332e-03  7.4723890139802837e-02 -6.0890831439176257e-06 -4.6373204621979573e-03  1.1444663222940973e-01 -3.2518809295111646e-02 -7.5076450889898687e-03  1.0464181893018157e-01 -1.1303531113431317e-02 -5.0086814044717530e-03  1.1643425976140089e-01 -2.1977609312136277e-02 -4.0867011612103600e-03  1.1856454562863626e-01 -9.8611995520370178e-03 -7.9606605744309399e-03  1.1010969775472337e-01 -4.3509008489808161e-02 -4.0389653413811866e-03  9.8603754316280962e-02 -3.7988090675274380e-02 -5.5988459532262651e-03  7.7382103896970575e-02 -2.2488949076838870e-02 8.7014940316963302e-03  7.9188937501290593e-02 -1.4507450052460055e-02 8.7078683321985626e-03  8.4401619370209624e-02 5.1510971498911367e-05 -5.6460348084316518e-03  8.1066594700467440e-02 1.4919950112750709e-04 -9.2137720514442432e-03  7.9809075032473142e-02 -8.3004970313977251e-03 -9.1880806702837204e-03  7.1890335489517010e-02 -1.9605928148609762e-02 -1.0457672541951614e-03  7.3221171342791685e-02 -1.3802518553816348e-02 -3.8800207312978453e-03  7.4932767019782312e-02 3.5605590474549176e-03 -9.5729169629285744e-03  7.4966557173359594e-02 -3.2958977308140936e-03 -9.6580993827907503e-03  7.4232608154921179e-02 -6.3755884210537220e-03 2.8595539500327052e-03  7.4403859099623923e-02 6.4596479280164471e-04 3.8496636549044012e-03  7.1458638719491874e-02 -3.9028726503285378e-02 5.3744444423743211e-03  7.1228881868805827e-02 -3.5268421760130668e-02 8.6772924524659480e-03  7.1990070443055276e-02 -2.9497347645938699e-02 5.3747096530953505e-03  7.0746402215645932e-02 -2.3349314671540753e-02 8.7881906098820923e-03  7.2527902960202631e-02 -1.6539804297032255e-02 8.7420370932511770e-03  1.1857686912082749e-01 1.2815721592553089e-02 7.3672292900229244e-03  1.1366866050001014e-01 3.5127095505104088e-02 8.0555445199945643e-03  8.8679143570033162e-02 -4.6059827719493310e-02 -4.3286936647293659e-03  1.0940524443032830e-01 -4.3042696651084532e-02 8.8359251595398119e-05  1.0926622706455034e-01 4.5706648023113042e-02 -2.5991016921243721e-03  7.9214167706780400e-02 3.4554281038166523e-03 5.6388066464671382e-03  7.4193754887390120e-02 -1.0462365105434230e-02 -9.4702703955103530e-03  6.6406715102377570e-02 -3.3850940170463487e-02 -3.8437795478665827e-03  6.9320055522932841e-02 -2.7224750239183259e-02 -4.3293415418454176e-04  6.9339323523555887e-02 -2.7192837663984420e-02 -4.6024203513084037e-03  6.8156143018787418e-02 -2.9965330008452605e-02 8.8444973285405522e-03  6.9372821150017722e-02 -2.6681572447887821e-02 3.8246809687244427e-03  7.4619523963202858e-02 4.2206626160595263e-03 8.8081813956627474e-03  8.0003117236261592e-02 8.6163077200387857e-03 -9.3355811758186382e-03  6.5036189350407531e-02 -3.6328931133501302e-02 8.8089970650859443e-03  8.1234465766633915e-02 3.2070176526620857e-02 -4.3150473197276270e-03  8.6059927957299359e-02 2.3050844703899859e-02 -8.9964373058612230e-03  8.7628889533618720e-02 4.0037177540442233e-02 -4.9564761188523971e-03  9.4898503289022162e-02 -1.6952122676954822e-02 -8.4805382633559682e-03  6.8210724580951468e-02 -3.0660631093862911e-02 -9.6979745398808968e-03  7.4335981274971694e-02 -6.8329659742285788e-03 -8.3987196985862555e-04  9.4323524084054172e-02 -6.7425182593763393e-03 -8.6165395700169376e-03  7.5208301490825247e-02 2.7161576201430046e-02 -5.0982591448913454e-03  9.1818748855267376e-02 -4.4171625461038914e-02 8.3782798395557797e-03  8.0533718125561787e-02 3.7078306671507397e-02 1.1500353091938071e-04  7.1732519883398529e-02 -2.0525701687554930e-02 -5.1797652245513907e-03  7.2739635225302510e-02 -1.7346916870561203e-02 -9.5307572526862287e-03  7.4502240827214405e-02 1.0551002065076987e-02 -9.5654963638079817e-03  7.3126351854539792e-02 -1.3044435179161113e-02 4.5897520218633218e-03  1.1849098968411999e-01 -1.0216643563962267e-02 8.2553479236249540e-03  7.6373645932533638e-02 2.4002458443801861e-02 8.7524221310722721e-03  7.0581281679116786e-02 2.4956692258990793e-02 8.8327762926558827e-03  6.6519266491293721e-02 -3.3200656593059270e-02 4.3370663233615768e-03  1.1404764058770454e-01 -3.2358618477077980e-02 7.5655844429228254e-03  1.1633476678850059e-01 -2.0746078565189115e-02 4.1864257750019486e-03  6.6097989283260328e-02 -3.4226687468797423e-02 1.3542760900645143e-05  8.1539439283279710e-02 -5.1157309519599327e-02 -8.5218307247130528e-03  9.3044732949261744e-02 -3.6202133269480304e-02 -8.4471310349367758e-03  1.0945199129910341e-01 -4.3593271640890011e-02 4.1722960529397965e-03  9.5798307090472781e-02 1.2340749210551184e-03 8.4191842645580054e-03  1.0478826118727680e-01 5.5971871795671167e-02 7.6666806733773794e-03  8.8624476419654749e-02 3.6982960760164912e-02 8.6250692542970391e-03  9.7056302503865557e-02 3.1883263778158581e-02 8.2620574544646410e-03  7.5557253331480903e-02 3.0388824039035103e-02 -9.2787870581328129e-03  6.9267139587714910e-02 2.8193523376394646e-02 -3.6761848958812411e-04  7.3436583099835029e-02 -2.9012665070273606e-02 8.7441502028970750e-03  9.7717118037290954e-02 -1.7781422728827306e-02 8.1584838321714127e-03  1.0631287473177463e-01 -5.3607794907634794e-02 -7.4639192786377356e-03  7.8065566610604833e-02 1.5061212852904699e-02 -9.2606470052193426e-03  1.0422736696770879e-01 1.4308207951141722e-03 7.8899343208886797e-03  8.2242580861821762e-02 -3.3075838244706585e-02 -8.9206892262648791e-03  1.0962125135638333e-01 4.5800368905697185e-02 2.9608979351915597e-03  1.0609107646240944e-01 -5.3905847249822537e-02 7.5691085427716251e-03  8.2687616397590827e-02 3.3380324961813410e-02 -9.1504557543913047e-03  1.0110129638466978e-01 6.2606663110853750e-02 -2.0133999437948132e-04  8.4275427992051025e-02 2.8254918232464930e-02 8.7109943733987560e-03  7.4290590626301833e-02 -4.7562155177558893e-02 8.4701863358993060e-03  8.4243337809702751e-02 -5.2969529654072610e-02 8.0715849095857901e-03  1.0201212991539631e-01 -9.8848456124301983e-03 -8.3598742256834335e-03  6.8582124783991866e-02 3.0969457284729114e-02 -9.5393500018933469e-03  1.0589032389533952e-01 5.6241697881624454e-02 -7.3462958664837260e-03  </DataArray> 
</PointData> 
</Piece>
</UnstructuredGrid>
</VTKFile>