<?xml version="1.0"?>
<VTKFile type="UnstructuredGrid"  version="0.1"  >
<UnstructuredGrid>
<Piece  NumberOfPoints="190" NumberOfCells="680">
<Points>
<DataArray  type="Float64"  NumberOfComponents="3"  format="ascii">0.7774620075900223 0.6213786897703732 0.6301803247013167  1.111892032715658 0.6950153870911676 0.6782986928341398  0.9398731368034582 0.9099149963248007 0.6065948067581353  0.9918676312209388 0.6543886671119523 0.8433271873984621  0.941138706865577 1.555920911307085 0.1704413559358486  1.182595711909019 1.604297419826286 0.2395450545717993  1.105979666019659 1.665697729685953 0  1.023406865707056 1.70983381097968 0.2701021146961656  0.410518663746953 1.145132281820996 0.1739528830163619  0.7253839885668945 1.031099139266958 0  0.5426779840473307 1.206243742029588 0  0.6297047863728796 1.149324118574361 0.3176746376671157  1.249304098544304 0.9818639786871559 0.6226004215358898  1.094501835405095 0.9069959230168483 0.7911110155726667  1.309593523734593 0.7964501727899614 0.7808372169612792  1.20556721898046 1.585445191179384 0.4476684804600739  1.091862571121528 1.371305525622352 0.2344987357957295  1.00357872437095 1.423058332434916 0.5177435908903606  0.6960222699964466 1.295807126413262 0.5330849355015431  0.8083390270524147 1.571591874322219 0.472239330174774  0.5517231384485761 1.454403164442377 0.4298188378448305  0.7915237499511695 1.458085557217198 0.6786322054571055  1.357588177110721 0.6051791325630997 0.4890122966951662  1.240163171506982 0.8056445430899435 0.4703265802928889  1.151085225078327 0.5687533494461764 0.2783924227271701  1.028457323040231 0.6449199764202236 0.4738119802244047  0.7150729101162372 0.6974000250004323 0.2407973732256986  0.7277563338502576 0.9325702370966827 0.1974234667644578  0.6474105652419927 0.7560981995049714 0  0.5740716115140515 0.8162859233710571 0.3048877041465921  0.8970303684702503 1.066138203770662 0.2442796007958575  0.9002133998610917 1.17533804169472 0.5123000448132571  0.6975758679023071 0.962264812445522 0.4999493235888443  0.8232270239921954 0.8366784538598585 0.3712692579210483  0.737989278808085 0.9484405353945584 0.8032480055582302  0.409052571906391 0.9097849337810207 0.7575866569922562  0.5740716115140516 0.8162859233710571 0.6951122958534079  0.4927023055088699 0.8650732196511788 1  1.318945904687044 1.211757931086913 0.1685462058045276  1.396119646174049 1.429062855640683 0  1.323743981377897 1.48846002871101 0.3033542810346415  0.8885834835094115 1.181931362434751 0.7862592131011225  0.6369413111082657 1.134962770928983 0.6982435355650809  1.608167053419037 1.177880549733519 0.5573502448101206  1.46993186874006 1.346320609625157 0.7298905348311824  1.337407211512027 1.172612294715934 0.6929771450134057  1.59208793517882 1.197473011997568 0.7591192318740774  0.9557526506976128 1.246217261180822 0.326487242387449  0.8546900028804062 1.42338227677442 0.2943349773090908  1.550998233803861 0.9111995664116754 0.1849175119678493  1.77241109869346 0.9063329948278898 0.3181289097797291  1.731901851626535 0.9821204655507698 0  1.68787056222753 1.064497214017726 0.227718517315201  1.212161326653626 0.7531181568750674 0.1983795961898235  1.452679860600187 0.9255222884508991 0  1.402424438470243 0.9010384370198017 0.3328658404411891  1.18759127663864 1.094084956292823 0.8187586393627059  1.132894300730159 1.25777000605403 0.6977305977620669  1.233403622207101 1.350707387097658 0.8306224871848118  1.110453387798646 0.7228126356976606 1  1.396334107737673 0.6569586265601434 0.2293062230638377  0.7586957751701788 1.078390789473408 1  0.638893776382075 1.350457219934239 1  0.7136870768114949 1.303857447958486 0.8049640593555427  0.5177585703954607 1.150958002924106 1  0.8445300158709623 1.604981812614957 0.8082361558247371  1.04220806685117 1.6997843595989 0.7606505371969035  0.9563164654530667 1.745694377030833 1  1.120187424138717 1.655514577971305 1  1.038802393529454 1.701604729914768 0.5014728633543934  1.19256308893487 1.596117404900978 0.6966893074531462  0.9567898099724369 0.9228692940619503 0  1.03031496855106 1.231174964082768 0  0.8632850317318228 1.217658577272664 0  1.079774313938461 1.133379028982271 0.1751659358748436  1.197697268132032 1.171089125397355 0.3405911527006547  1.083810992509664 1.023977793514315 0.4719324767211387  1.099182398949108 0.3880552209149545 0.1957914270122534  0.8818750233254947 0.4612683417535055 0  1.056155958575636 0.6874912936824367 0  1.229886675696233 0.5007899141836832 0  0.4927023055088699 0.8650732196511788 0  0.9749819037011852 0.7024885010645605 0.1975389432192668  0.6123194148856593 1.595725146552285 1  0.7812639663649553 1.584748348389377 1  1.292228821875236 0.3076565757391458 0.3322186037030394  1.098809470646287 0.4309227919496545 0.4970820672189703  1.590138388628021 0.4593370694758154 0.2945152002274293  1.315813659229962 0.4642700054059137 0.190741969146883  1.408994663971455 0.4584005427637182 0  1.51933550996271 0.6057145881881473 0  1.041709101276478 0.8351940240328192 0.3517222846659885  1.019966115184728 1.452340326101413 0.7686697543582467  1.652267750340121 0.7170285837690376 0.1942889247819515  1.598629367531194 0.7112307742484612 0.4067389616198721  1.251368316581744 1.547857201781337 0  0.4090525719063911 0.9097849337810207 0.2424133430077436  0.4373270451765627 0.8946719129549711 0.4642534374329268  0.8523194685862787 0.5165628955080167 0.5353394748175138  0.8371176937844129 0.5450034157879631 0.2425687671324744  0.9256196219250847 0.3769471263237471 0.3049757398701155  0.7150729101162372 0.6974000250004323 0.7592026267743015  1.064420116520024 1.439974741234165 1  1.264938753731023 1.53672023183065 1  0.6728588884486792 1.610917347527578 0.2548265037722429  0.6604224575562542 1.345792777446799 0.2156757224577727  0.3201523955821021 0.9428481151419348 0  1.605658537252647 0.6244509830031152 1  1.640805752085594 0.7917066994273915 0.8363217813185927  1.555168925950011 0.8010892577516333 1  1.828449529456563 0.8014924648669517 1  0.5816022277758496 1.690086983344825 0.8067655618993008  0.7035836352175737 1.866500802797774 0.7723279307459789  0.6141724175832469 1.893623399144441 1  0.7911708648278604 1.833966539618288 1  0.9378173110873954 0.7761969569558207 0  0.6192707387864216 1.627646493536906 0.6021451367074655  1.518158615246162 1.287556148979834 0  1.458868696661322 1.359801123807286 0.2353254896464294  0.837117693784413 0.5450034157879631 0.7574312328675255  0.7787096233442427 0.6198584655752766 1  1.196308602036355 0.9625326601231052 0.1942587025961539  0.7787096233442427 0.6198584655752766 0  1.36894933200201 1.089093832260849 0  1.675712442972969 0.5076096835010768 0  1.250939842260001 1.00707420999901 1  1.084815113648739 1.026312084294493 1  1.393810227468341 1.10336698973964 0.468472854108257  1.421858507630868 0.5458021515535201 0.7388856714641274  1.534309277461855 0.7778511024357632 0.6857270238177977  1.218689289798513 1.357769733466394 0.4721948408694612  1.758219163862446 0.5058320789461144 0.1873275422099707  0.8737436651404633 1.789830458324561 0.7297320227919915  1.863111706926676 0.7147559870323206 0.7298487012854733  1.661746245061362 0.5816837277146546 0.7663103395431662  0.9408340653944534 1.753969892273407 0  0.8582612650818502 1.798105973567135 0.2353520733753807  1.692680460452608 0.5205670870368633 0.4884510932914654  1.91452828856335 0.5452582327623938 0.3183348412008885  1.858012708296988 0.7315651328223836 0.2684738954631778  1.858012708296987 0.7315651328223847 0.4985186121010893  0.7185014395798415 0.693222349761448 0.5  0.5364371386811475 1.440262568815689 0.7514707611545899  1.784313448162836 0.8840652651795544 0.764993707176584  1.25394881010603 0.8080914854508547 0  1.189192821247533 1.127225816277893 0  1.636952961386817 1.142804819387528 0  0.928663134189185 1.501464274898857 1  0.4355148696451734 1.128293321660349 0.7938795729772468  0.4447834298253233 1.138815981887424 0.4774553823536878  1.450468287554834 0.9958694460606382 0.764245092388805  1.768113762273237 0.9143727457913158 0.5231233826115309  1.536370480643302 0.9309159599273107 0.5158130040637304  1.687870562227531 1.064497214017725 0.4085393022442587  0.9076703735219958 0.8755311530187188 1  1.696120982847927 1.049061762695049 0.6878222845953621  1.342926703294695 1.472717175683529 0.6269914679574615  1.458868696661323 1.359801123807285 0.4985311965600771  0.9256196219250848 0.3769471263237471 0.6950242601298844  1.177835336004069 1.310669829909235 0  1.211168023066412 0.540194530300085 0.7960425385136159  1.740177366869109 0.9666380654921573 1  1.529295585196848 1.273985711830556 1  0.6935573934875271 1.489966702901899 0  0.6997615025342375 1.302391046738392 0  1.008956372805014 1.397384178309885 0  1.885130003936683 0.6421713892771383 0  0.6474105652419927 0.7560981995049714 1  1.82017401421399 0.8169748649255643 0  0.8818750233254947 0.4612683417535055 1  1.167609977272698 0.4754420500101144 1  1.262446367615859 1.173912818054248 1  1.410939694326908 1.055731877453815 1  1.577555788316489 1.215180484183681 0.2703499351130658  1.388222600345667 0.5481825370432527 1  1.409690083323328 1.417925885689996 1  0.9710044101109969 1.326147373629475 1  1.386390748158082 0.8736441173880511 1  0.8515894704581112 1.8016721220903 0.4413049598686785  0.7035836352175724 1.866500802797774 0.5915509350030332  0.5320136015975745 1.918546003502801 0.6819394328745076  1.15204924228296 1.3176550378158 1  1.033366496021805 1.077557223283553 0.682543228095905  1.516698867441217 0.9474449314155249 1  1.648089931337503 1.12923438223825 1  0.5407342723545181 1.91590061694985 0.4770057860357425  0.6868754821180931 1.871569165629705 0.3122079285272521  0.775688464769247 1.842242054860862 0  1.103193596384578 0.3504086635323349 0.7926247744809052  0.5147335164951123 1.695375458309009 0.4045574146742378  </DataArray>
</Points>
<Cells>
[...]
<PointData  Vectors="f_18"> 
<DataArray  type="Float64"  Name="f_18"  NumberOfComponents="3" format="ascii">9.2315224837523135e-02 7.4945390380192697e-02 -1.8983039049331489e-03  8.1809197174908560e-02 5.2367383060504882e-02 -3.0257838945658747e-03  6.9326786743909616e-02 6.8255609440547621e-02 -1.7676492837916298e-03  8.6767683778385618e-02 5.8642582447535112e-02 -5.4719874207201525e-03  4.0332302701739757e-02 6.8254989737168620e-02 5.9898430294571788e-03  4.4076803571235716e-02 6.1266988436279431e-02 4.7423642875770861e-03  4.1072051456783734e-02 6.3474421243152987e-02 9.0738071531888311e-03  3.8161230611202579e-02 6.5241995234965683e-02 4.2429805697720554e-03  3.3986431588523186e-02 9.7449389559193647e-02 5.7250867194217460e-03  5.7086812298543295e-02 8.2724143830871191e-02 8.5295941574868635e-03  3.9085145176741082e-02 8.9175103293315072e-02 8.6695088107373221e-03  4.6005657826109610e-02 8.5938581586432181e-02 3.3582321950495109e-03  6.6504280677875505e-02 5.3554319445160439e-02 -2.3691175116810851e-03  7.0255373307991253e-02 5.9353903717371669e-02 -5.0256218817356646e-03  7.4215802105357609e-02 4.6101291552020515e-02 -5.0606345112551871e-03  4.5164493790634912e-02 6.0566663172863154e-02 7.6592559950653706e-04  4.9413443234055103e-02 6.3648051545691212e-02 4.7849808430377155e-03  4.6108328307456349e-02 6.6747851857816967e-02 -3.9412610992958682e-04  4.2300824244669903e-02 7.9859896400638564e-02 -4.8381124080109440e-04  3.6340270400074884e-02 7.2014174288551128e-02 5.7736373504723099e-04  3.0227525784916519e-02 8.1771452807952033e-02 1.4449260713095549e-03  3.9359684834166166e-02 7.3836381565777029e-02 -3.1028949827967204e-03  8.0533718125561787e-02 3.7078306671507397e-02 1.1500353091938071e-04  7.4311047715024448e-02 4.9350886424493617e-02 4.3796425363362197e-04  8.7781820949721659e-02 4.4486707023111687e-02 3.6900361874530568e-03  8.6328073015376580e-02 5.5211680073836845e-02 4.8402916933686725e-04  8.4144084074418687e-02 8.3501852734028770e-02 4.4428746948606233e-03  6.4028891567340623e-02 8.3324293596913623e-02 5.1530148649937485e-03  7.6438781082705784e-02 9.1432490491620111e-02 8.3628024574785229e-03  6.7403198048336957e-02 9.8291611380892485e-02 3.3170468479734603e-03  5.9419568668957576e-02 7.2049993869384987e-02 4.5444363994401162e-03  5.3904995594479220e-02 7.1522745388271095e-02 -1.0687941131577311e-04  6.0711682293380718e-02 8.5483270959371638e-02 2.4725756210197892e-04  7.2840691569434166e-02 7.5831377652346654e-02 2.2839342922994061e-03  6.3176022778006574e-02 8.2694396981981777e-02 -4.7565913971128523e-03  4.8573416601180176e-02 1.0980633340316388e-01 -4.3161629176486187e-03  6.7943679676116545e-02 9.8333542101093185e-02 -2.7265960005212362e-03  5.8827816489820779e-02 1.0458845537622645e-01 -6.8447582085739691e-03  5.7965169111094457e-02 5.4468178208700049e-02 5.7924569373442895e-03  5.1935903788622131e-02 5.4422016456314254e-02 8.8863764853379153e-03  4.9574985745472290e-02 5.6766291176292880e-02 3.4710964815262146e-03  5.3359711168477368e-02 7.2239055421420506e-02 -5.0023976990821459e-03  4.7188366975237463e-02 8.6152313225111937e-02 -3.2454299274812912e-03  6.0335004363993326e-02 4.5128708086249483e-02 -1.3795818919912757e-03  5.5069076197972425e-02 5.1569116427621201e-02 -4.5448551485846650e-03  5.9614570069074162e-02 5.3392686583853446e-02 -3.6249558864661054e-03  5.9781361517959687e-02 4.5953103939330976e-02 -5.0881044325266946e-03  5.1738982781637327e-02 6.8909570340679141e-02 3.0376840451680153e-03  4.2258539135939743e-02 7.2019685356514693e-02 3.6814817076814411e-03  6.7566212677203141e-02 4.0799500236489657e-02 5.4139645186789343e-03  6.6257502286352618e-02 3.4809534058341821e-02 3.1073644739664699e-03  6.4853054124610413e-02 3.7855358245670122e-02 8.9760313561975114e-03  6.2883555193068111e-02 4.0765147415744003e-02 4.7452131623328111e-03  7.7098028204480459e-02 4.9129040381444757e-02 5.1805397148755256e-03  6.7967329048763028e-02 4.4295517514457261e-02 8.7399573435931119e-03  6.8998115447714739e-02 4.5441432936180359e-02 2.8151671222069411e-03  6.1745134726361950e-02 5.8003326944080218e-02 -5.7488937267496506e-03  5.4666339276954509e-02 6.1765862541858688e-02 -3.7380341911481311e-03  5.2796781200839540e-02 5.8784487778008175e-02 -6.1526469714447947e-03  8.0858267813691362e-02 5.3563748315890634e-02 -8.7238981908148404e-03  7.8167656382006193e-02 3.7725958900543727e-02 4.7231392099669669e-03  5.5622316676387965e-02 8.0170436027374684e-02 -8.5157956698139938e-03  3.7675881284011149e-02 8.1461698717941636e-02 -8.7231316321710727e-03  4.2475073187934094e-02 7.9109178649739514e-02 -5.3100740106140710e-03  4.0845945304002623e-02 9.2401794831992554e-02 -8.0820613468656349e-03  3.6565962400234672e-02 7.0582460925486423e-02 -5.5841341904736535e-03  3.9008619989798460e-02 6.4960699761681409e-02 -4.8616154499500725e-03  3.6126029488834983e-02 6.6930344650978857e-02 -9.4771244594703437e-03  4.1996137996437234e-02 6.3027120775755729e-02 -9.2472238792826022e-03  3.8990912561485187e-02 6.5024804677547135e-02 -7.6799675385163842e-06  4.4745391534309058e-02 6.1006933114414165e-02 -3.8362568427312092e-03  6.8624311852842068e-02 6.7826666714754402e-02 8.6166238889297288e-03  5.3778890690412189e-02 6.5936529976162658e-02 8.8550930530718192e-03  5.0792339966256247e-02 7.3426301729238613e-02 8.8565086176481990e-03  5.8861972227396066e-02 6.3097741725311324e-02 5.6804932706591826e-03  5.8549200896824936e-02 5.8353990040753610e-02 2.6805694289997015e-03  6.3878946216233662e-02 6.1746202350552941e-02 5.0012037342365870e-04  9.9268760117665999e-02 3.6023717093292898e-02 4.9110165819741579e-03  1.0478826118727680e-01 5.5971871795671167e-02 7.6666806733773794e-03  8.3302281564052921e-02 5.5340773945755227e-02 8.3267075503486530e-03  8.8624476419654749e-02 3.6982960760164912e-02 8.6250692542970391e-03  5.8372096821598156e-02 1.0486202011216932e-01 7.3613709957311580e-03  8.3167890349435641e-02 6.1199122134165659e-02 5.1427942319919690e-03  2.9134793914075842e-02 7.7334876532459296e-02 -8.9458603122977848e-03  3.5302854557904571e-02 7.2790232256057935e-02 -9.0560607304427058e-03  9.2761220434736391e-02 2.2868960914003037e-02 2.7575261344958937e-03  9.6952932109145920e-02 3.9394350308061023e-02 5.3332271770770971e-05  7.9232746184205116e-02 2.3577963692209398e-02 3.3240706844421546e-03  8.6932708031846689e-02 3.1585768702974998e-02 5.4316619067197027e-03  8.4275427992051025e-02 2.8254918232464930e-02 8.7109943733987560e-03  7.7245263226031813e-02 3.1719033818806287e-02 8.6898280660984793e-03  7.4081401119841322e-02 6.0455152320763844e-02 2.3848447454485082e-03  4.5707752363584396e-02 6.6030902421810714e-02 -4.9402717256853603e-03  7.1916195731541413e-02 3.2156099952172175e-02 5.2856777354903586e-03  7.2768198081521379e-02 3.3313122835206703e-02 1.4629953722860166e-03  4.6798851390542295e-02 5.9304854060550326e-02 9.1596117844444692e-03  4.8180797110537153e-02 1.0933643332668803e-01 4.5866682045594860e-03  5.2038123291863622e-02 1.0750432123864591e-01 8.2370325086550302e-04  1.0110129638466978e-01 6.2606663110853750e-02 -2.0133999437948132e-04  9.9424353691334635e-02 6.5677379978231226e-02 4.0908081048775030e-03  1.0962125135638333e-01 4.5800368905697185e-02 2.9608979351915597e-03  8.4630929168515182e-02 8.3644077088476917e-02 -4.0970836082328578e-03  4.7203932063172964e-02 6.4720543295717095e-02 -9.1164825978333874e-03  4.7756483242552071e-02 5.9021373974235097e-02 -9.3464905732019155e-03  3.0653774613699593e-02 7.5210525922562568e-02 4.5960876038676751e-03  3.8376666982908973e-02 8.0324869741813826e-02 5.1645461480124086e-03  3.7977220334690011e-02 1.1375950029690100e-01 7.9644375880247639e-03  7.5557253331480903e-02 3.0388824039035103e-02 -9.2787870581328129e-03  7.0500159637412851e-02 3.4984560153150823e-02 -6.4386418870016771e-03  7.1368497723857408e-02 3.7884331248243752e-02 -9.3008643309077134e-03  6.8582124783991866e-02 3.0969457284729114e-02 -9.5393500018933469e-03  2.5442494788985394e-02 7.6182810662110995e-02 -5.3860640777960243e-03  2.6318998245574373e-02 7.1044152220061774e-02 -5.0117781665052121e-03  2.3196325287731360e-02 7.2562262466403529e-02 -9.2118259236903394e-03  2.9634044918156983e-02 6.9943563550340329e-02 -9.0986554307802229e-03  7.8324155126138106e-02 6.6220410524747461e-02 8.4630353298926937e-03  2.8429088860867629e-02 7.6288678085913803e-02 -1.6988394783864190e-03  5.6766090356323240e-02 4.9389321401140558e-02 9.0149915633012199e-03  5.4385661637633989e-02 5.1863084392453650e-02 4.5694227449468256e-03  9.9809754960159675e-02 6.6275236993629097e-02 -3.4717402092285243e-03  9.3598160899491134e-02 7.4910214297620167e-02 -6.9435646736735225e-03  6.7341897574720672e-02 5.5400964658755318e-02 5.2860838722934263e-03  9.3063393688559579e-02 7.5125937549717928e-02 7.6004417425310144e-03  6.2411120957913804e-02 5.0844512142613041e-02 8.8552583170449922e-03  7.6373645932533638e-02 2.4002458443801861e-02 8.7524221310722721e-03  6.5768676176251539e-02 5.4025487197467491e-02 -9.0835049018810187e-03  6.4276541223867001e-02 6.1990531405261298e-02 -8.8489305225437978e-03  6.2150430063005094e-02 5.0229830533248691e-02 4.0526550618854684e-04  8.1234465766633915e-02 3.2070176526620857e-02 -4.3150473197276270e-03  7.2004956477663279e-02 3.7518424871271584e-02 -3.5921459187900711e-03  5.2167965229124327e-02 5.9195317605388514e-02 3.6197227609950091e-04  7.4795898567870112e-02 2.2333882009056696e-02 5.4577214704848182e-03  3.2699258300917161e-02 6.8370160799264348e-02 -4.2267440530186660e-03  6.9673750575298038e-02 2.7602648945150850e-02 -4.5795842719160706e-03  7.5208301490825247e-02 2.7161576201430046e-02 -5.0982591448913454e-03  3.5193781214689357e-02 6.7382637697315534e-02 9.3515352094675538e-03  3.1996877181604148e-02 6.8665584922098635e-02 4.9739034405356358e-03  7.5809224640354902e-02 2.4175495576016923e-02 -1.4397291768196205e-04  7.1762492758849869e-02 2.1255729965178528e-02 3.0256743304004478e-03  6.9186951176759576e-02 2.8180080414218402e-02 3.9315280116908862e-03  6.9267139587714910e-02 2.8193523376394646e-02 -3.6761848958812411e-04  8.4826055443408599e-02 8.3484699024792067e-02 2.4807355839992918e-04  3.0009414032472370e-02 8.2591726554349917e-02 -4.2724096312875149e-03  6.6844186833467933e-02 3.4046994958781253e-02 -5.2239500440300363e-03  7.4131471000953464e-02 4.8935605910997555e-02 8.6907363311113147e-03  6.0091939360809671e-02 5.8375085929370067e-02 8.7695934662136571e-03  6.1117373348877041e-02 4.3615110278604166e-02 8.8154400840382268e-03  4.2133412842252325e-02 6.9065329912231993e-02 -9.1392619866727878e-03  3.6858511605508619e-02 9.6923594332769758e-02 -4.6150497057672480e-03  3.6730179801522336e-02 9.5812835157519108e-02 5.0252471874726013e-04  6.5705511049338139e-02 4.6284648747451765e-02 -4.9958573796333935e-03  6.6289461331117863e-02 3.5069632738270191e-02 -6.7344208231067022e-04  6.7246184958451222e-02 4.1854490996737111e-02 -5.2230257967720987e-04  6.2960964021902890e-02 4.0694349407809333e-02 1.2384978849187067e-03  7.1556976093477942e-02 7.0659321486561830e-02 -8.4476561832640424e-03  6.3520233657831146e-02 4.0244950267015439e-02 -3.8270105409219496e-03  5.0311129966081621e-02 5.6361899764937239e-02 -2.5557434068194666e-03  5.4653589348952925e-02 5.2065689277437897e-02 -2.9096100710118851e-04  1.0926622706455034e-01 4.5706648023113042e-02 -2.5991016921243721e-03  5.2986097562075764e-02 6.0457807528422759e-02 8.9762759316777962e-03  8.7628889533618720e-02 4.0037177540442233e-02 -4.9564761188523971e-03  6.5580736942166137e-02 3.7419879397327285e-02 -9.5220322057007756e-03  5.7726203329253191e-02 4.9120076745839486e-02 -9.4913812188512810e-03  3.4953106824405542e-02 7.6738453752014130e-02 8.9419970211103150e-03  4.1997459628974880e-02 7.9700579264675248e-02 9.0650501179688463e-03  4.7081970248261974e-02 6.6729763827390154e-02 8.9525919705976727e-03  7.0581281679116786e-02 2.4956692258990793e-02 8.8327762926558827e-03  7.7013766789239865e-02 9.1446153892098758e-02 -8.2555585465376932e-03  6.8090053102420167e-02 3.1463599943284834e-02 9.0501544332743100e-03  1.0589032389533952e-01 5.6241697881624454e-02 -7.3462958664837260e-03  9.2670593696382850e-02 3.8444009060324399e-02 -8.2672786953200180e-03  5.9375956079619589e-02 5.6145376293781024e-02 -9.1561000310470091e-03  6.4091358791319608e-02 4.9053134897277237e-02 -9.1630290823676349e-03  5.9124249566370767e-02 4.6547927897343008e-02 3.9273755723364017e-03  8.2687616397590827e-02 3.3380324961813410e-02 -9.1504557543913047e-03  5.2895983874792440e-02 5.4194417257923726e-02 -9.4147240680859806e-03  4.9344165282047922e-02 6.8192160309946945e-02 -8.9310788179229796e-03  7.0365373747471496e-02 4.5648359864252135e-02 -9.1304575687779083e-03  3.1687576484584694e-02 6.8688405877633321e-02 1.1521029404812499e-03  2.6089763541778221e-02 7.1136128212239247e-02 -1.6244279685067851e-03  1.9757028486155626e-02 7.3392353848079836e-02 -3.2473242208657101e-03  5.2936058354419453e-02 6.1558002032551802e-02 -9.1353400099926912e-03  6.0962359828979920e-02 6.4911814226852216e-02 -3.1444739370583190e-03  6.7182937438675122e-02 4.3043441135155215e-02 -9.2939333839363678e-03  6.1873469480224340e-02 4.3352903630425231e-02 -9.5676519452321668e-03  2.0165081259597338e-02 7.3253649684158109e-02 4.6467935638203214e-04  2.5485682215203500e-02 7.1339833620281387e-02 3.4499563416657288e-03  2.8765726008342863e-02 7.0164892904187370e-02 9.2602393503416723e-03  1.0087488791296791e-01 3.2963963604277509e-02 -4.7957950141343025e-03  2.2783166284632141e-02 7.7361427581719322e-02 1.8106837946158247e-03  </DataArray> 
</PointData> 
</Piece>
</UnstructuredGrid>
</VTKFile>