<?xml version="1.0"?>
<VTKFile type="UnstructuredGrid"  version="0.1"  >
<UnstructuredGrid>
<Piece  NumberOfPoints="187" NumberOfCells="657">
<Points>
<DataArray  type="Float64"  NumberOfComponents="3"  format="ascii">0.7119454820819836 -1.311017197308812 0.7850254167931945  0.6711564508304207 -1.401253329984251 0.5622240771778685  0.7873485614796214 -1.551119900712338 0.747618612172079  0.509899363520301 -1.411274404689723 0.7930410904030668  1.571223386396861 -1.222896538248188 0.681768998400601  1.365943112648017 -1.134934275590741 0.4914509233146168  1.447765498390705 -1.373330410045335 0.7315215413413203  1.404410164647943 -1.149349917793486 0.7975908961567035  0.803830552736335 -1.241808787336111 1  1.027552987385453 -1.122421832866236 0.7520124683793958  0.9317589561501367 -1.126789045658179 1  0.9466024263613499 -1.337784875385508 1  1.015601792777485 -0.8204518079745813 0.6525547521204649  1.304637174418844 -0.7075626243921807 0.5186954339142219  1.054700059797406 -0.6058616406515142 0.4895215437898623  1.110028565937067 -0.5800778232130865 0.7539770568553924  0.9065780864506976 -0.7643401139982925 0.8193321493755804  0.8427521110205465 -0.5344621625620394 0.6951122958534079  0.8874756245502677 -0.4507903538350485 1  0.6565945984642327 -0.7485610582252132 1  0.7260749200787838 -0.683994037072515 0.7575866569922562  0.7862467646240011 -0.6106744323530362 1  0.4437787684872145 -1.472384709319954 1  0.3808210433871149 -1.763882641155164 0.817384939724187  0.5886194165627399 -1.607799173493189 1  0.2828443174131989 -1.737656437702833 1  0.8427521110205465 -0.5344621625620393 0.304887704146592  0.9275246612083398 -0.3706670534361827 0.2407973732256985  0.9290934823066148 -0.3654953433663091 0.5  1.254380730905587 -0.8083467088102502 0  1.452879240810067 -0.9256401028442123 0  1.469388374880087 -1.034040776775462 0.1882486755660968  1.347617246490652 -1.061163179822044 0  0.5031802934273266 -0.8594726184264059 0  0.7805047611923689 -0.9061187185566575 0.2197836778390664  0.6565945984642327 -0.7485610582252132 0  0.5790946986177532 -0.8121635823205643 0.2406591020066253  0.8638068359660822 -1.218302366084752 0  0.9324225297118618 -1.069640369270793 0.223104162955864  0.7932047642417024 -1.26389931307753 0.1963766327108795  1.030433715894798 -1.231858392111446 0  0.9080933109673303 -1.392933173756074 0.3219887364722751  0.818663626867002 -1.250496447075703 0.4758235842672084  0.5790946986177532 -0.8121635823205644 0.7593408979933747  0.7288306932309858 -0.9486137962695518 0.8304626122976658  0.7999786526575325 -0.8565217994501219 0.6452470139574003  1.157231385552274 -1.253901033215793 0.281726668262764  1.224429837858597 -1.367445394691974 0.1621926997827459  1.177855468001781 -1.310694360819405 0  1.636952961386825 -1.142804819387519 0  0.7464136245425157 -0.6592112539775661 0.464253437432927  0.9590515939106158 -1.078423956001888 0  1.189271625505363 -1.127293779066439 0  0.7450638420349176 -1.620742934143578 1  0.9598730660345802 -1.549077209085725 0.8242980760773153  0.8995443726527385 -1.515344433769769 1  0.9253516653358499 -1.762245407515976 1  1.29264339957742 -0.7108631639275693 0.248925098563288  1.064679695988678 -0.6749731916823414 0  1.119003905466543 -0.9695779869373969 0.2100492968754825  1.576997441744635 -1.215860831449986 0.4767686081794522  1.687870562227536 -1.064497214017714 0.3121204132896461  1.577555788316497 -1.215180484183672 0.2425537263387976  0.4566179955496571 -1.609390190456626 0.6989686505589768  0.4780196499422931 -1.718624147876173 0.4860276821231871  0.4598397724961487 -1.407027747603131 0.4646693967668116  0.6555930567863257 -1.664756582497279 0.5960201095882456  1.080685194586458 -1.202250007878773 1  0.580573651550607 -1.903815473393742 1  0.5734276495182083 -1.711685493650841 0.8245233371918688  0.9720734413444984 -1.373627274294348 0.6790269542916713  0.7381014911438812 -1.022860552606942 0  0.5649892703019659 -1.018153738993141 0.2065824908697158  0.6859686601772466 -1.136244635014237 0.3299139575879882  1.059531587242102 -0.5973251627738123 0.226746809598138  1.023435757713041 -0.8146736758415731 0.3189846134813204  1.297544141558148 -1.005011241379223 0.3189684790296657  0.5832887714184972 -0.8087215957258024 0.4999999999999999  1.000672008306493 -1.113805047495691 0.487632913986857  1.1929972635708 -0.8536914974626655 0.780931025369012  1.284717519815038 -1.02228507292348 0.6703955176972156  1.20351971211937 -1.239767330590945 0.7939120312707418  1.10743765731954 -1.431746180074469 0.8139666446241006  1.206663380515088 -1.269235118192567 0.5803433203994834  0.5031802934273266 -0.8594726184264059 1  0.7739143362555156 -1.072397343309636 1  1.300974086628094 -1.226302537576867 0  1.338534520264107 -1.194150655990213 0.2011991283607386  1.244666982182433 -1.191554482389109 1  1.176003996493655 -1.33611093172008 1  0.8428253757598037 -1.806356628303072 0.7017027633753112  0.6701703609710061 -1.876636608728933 0.7670361119449685  1.251368316581753 -1.54785720178133 0  1.396119646174059 -1.429062855640675 0  0.9633396945064303 -1.532543348225953 0.504411395532755  1.51815861524617 -1.287556148979825 0  1.496956996248435 -0.92836030672711 0.733478808495897  1.486803694599748 -0.9110561600863133 0.4938031200867036  0.8140359668217003 -0.928879231333442 0.4392990111823438  1.173511336853638 -0.9048826654188855 0.4957352355486239  0.4037512339627746 -1.080144681274499 0.7916997388280334  0.5315656042297237 -1.1447348656588 1  1.639622120442623 -0.7656643535348759 0.5754969080455435  1.647316553768361 -0.730739989356719 0.8042598622939813  1.764178512674736 -0.9217350799576589 0.681768998400603  0.9657215264631963 -0.9093291733414921 0  0.609932068791446 -1.364176709429583 1  1.472680754612366 -0.8169236440154841 0.189840841356636  1.773358286409876 -0.9045609312492104 0.2410240474052892  0.5038238211581905 -1.074271211065006 0.5112063182307277  0.4006956025444619 -1.24843802094553 0.6812500201025888  0.7276110770644739 -1.094877295120382 0.6732896863357209  0.4909769421302074 -1.93099433805855 0.7575947101728453  1.38956983664371 -1.075452775247462 1  1.009197349932888 -1.397681489770207 0  0.5007099757113176 -1.928041854600282 0.3180605671254946  0.6868754821181033 -1.871569165629702 0.2684565302298717  0.6868754821181031 -1.871569165629702 0.4985271366456067  1.374638822880307 -0.7269623812337992 0.7816877154595647  1.596035538136801 -0.6475556862479659 1  1.811898498971423 -0.8324572649841648 1  1.576862202356231 -0.8129917743520412 1  0.6936374543645428 -1.490116486267707 0  0.8025770010134894 -1.582936134930714 0.1789258885538291  1.45886869666133 -1.359801123807276 0.2329044500023627  1.323743981377906 -1.488460028711002 0.2983514543155433  0.7571261393854014 -1.588227948599163 0.4034342435924383  0.5105785823554512 -1.583270420542069 0.3212501110323914  0.8191217493535388 -0.9003543932255844 0  0.9108064832199552 -0.7168879053805575 0.1960696744913284  0.5834852897946156 -1.717308399664762 0.1887386398541893  0.8582612650818593 -1.79810597356713 0.2345944512541738  1.023406865707066 -1.709833810979675 0.3360631755621046  0.9134091603486951 -1.768628809422758 0.5063694337812823  0.617899748202294 -1.653792821188109 0  0.7756884647692561 -1.842242054860857 0  1.500447934349236 -0.9696295598465304 1  1.723626336383968 -0.9976028656093712 1  1.304133313638584 -1.504554087798652 0.6818852646335845  1.382549209024781 -1.440199825591361 1  1.237797879432475 -1.558994171732016 1  1.372150915982795 -0.8905933020381092 1  1.447765498390705 -1.373330410045335 0.5014756417954529  1.731901851626541 -0.9821204655507586 0  1.548728803732611 -0.6572481953988726 0.3158315927164428  1.759877105553066 -0.9297824466678363 0.4766530223320761  0.9182578431128523 -0.8646999765548649 1  1.073201216885297 -1.038090295992939 1  1.183469093176923 -0.8848763635278679 1  1.142512612418792 -0.9516293590046008 0  1.109591404263192 -1.393011847861546 0.4362628689155215  1.215386324078908 -1.577386859880171 0.4184832804743677  1.117097531608276 -0.7081609724092219 1  0.7260749200787839 -0.683994037072515 0.2424133430077437  1.038706690905149 -1.45578038790324 1  1.625815991436139 -1.156375256536797 1  1.507021645295484 -1.301126586129103 1  0.49198228108192 -1.930689371821647 0.5229837268563096  1.165552904605024 -1.618284090316855 0.5914719092900202  1.165552904605024 -1.618284090316855 0.7722986199771491  1.090497265961056 -1.673973244928521 1  1.018251277396346 -1.493874823880694 0.1811641159579966  0.9408340653944625 -1.753969892273402 0  0.7862467646240011 -0.6106744323530362 0  1.105979666019669 -1.665697729685947 0  1.679590237761743 -1.079988611500134 0.5913175450030814  0.6027785381133539 -1.359332156263882 0.2124371689903601  0.5587472371219874 -1.203112900522971 0  1.381951970976821 -0.5634760338254743 1  0.7597670703914065 -1.849457744064124 1  1.679590237761742 -1.079988611500134 0.7722204517981226  0.4999697403346577 -1.076876380065217 0  1.17903341878715 -1.607220918238119 0.2399632141173498  0.2713321621710769 -0.9576575710401055 0.4639489892092016  0.2407869516577543 -0.9669233593494102 0.2422811437659894  0.384799343308686 -1.090040125494568 0.2000785832607395  0.4195556527163921 -0.9041709201262842 0.3048123389795397  0.3315216749971926 -0.9393992819363619 0  0.4195556527163921 -0.9041709201262842 0.6951876610204601  0.3833720884367542 -1.248266169376449 0.3125100964111098  1.016841500351821 -1.713343071873639 0.6818852646335847  0.9275246612083399 -0.3706670534361827 0.7592026267743015  0.3070347646120418 -1.231266475456671 1  0.5973730345669322 -1.89871943626909 0  0.8874756245502677 -0.4507903538350485 0  0.3315216749971926 -0.9393992819363619 1  1.575155775830446 -0.7921739152598291 0  </DataArray>
</Points>
<Cells>
[...]
<PointData  Vectors="f_18"> 
<DataArray  type="Float64"  Name="f_18"  NumberOfComponents="3" format="ascii">5.7462103125684616e-02 -1.0587597767755892e-01 -6.7470019721481258e-03  5.0554997335693047e-02 -1.0530287008818250e-01 -1.7591084031628964e-03  4.9445543130609573e-02 -9.7340296025565973e-02 -6.5275205866686010e-03  4.0658874963141710e-02 -1.1245304394317743e-01 -7.0936998959170525e-03  8.0677554287910944e-02 -6.1995952309452790e-02 -5.3214113261318861e-03  8.3259096507560415e-02 -6.8325432968685554e-02 -2.4095352892510317e-04  7.4135892643543838e-02 -6.9661674897697090e-02 -6.5289419215792364e-03  8.2992424612175444e-02 -6.7104166203585433e-02 -7.8951249095704883e-03  6.6363391621138065e-02 -1.0212323823916236e-01 -1.1916215672524154e-02  8.0426647006608121e-02 -8.7108681287643597e-02 -6.2937974323238645e-03  7.8190294037868008e-02 -9.4194649697313698e-02 -1.1902486830579080e-02  6.6373079149415426e-02 -9.2585716378878760e-02 -1.2262168750785507e-02  1.0257438805288707e-01 -8.2231731561665675e-02 -3.3574300890946243e-03  1.0571269314239043e-01 -5.6561914142070728e-02 -5.4909647100651873e-04  1.1981273943610550e-01 -6.8376436411349120e-02 2.5541415677455886e-04  1.2031171141183158e-01 -6.2467166039109720e-02 -5.5787167732598286e-03  1.0779745182910445e-01 -9.0524673325238281e-02 -6.4682485359203292e-03  1.3505725480776484e-01 -8.5278920085377866e-02 -3.7499405312066982e-03  1.4390875369733502e-01 -7.2567152334963025e-02 -9.3184238652224399e-03  1.0610083090800958e-01 -1.2120562085231613e-01 -8.9939752666447197e-03  1.1657744172975348e-01 -1.0987113971322912e-01 -5.0671114802150084e-03  1.2690529136851844e-01 -9.8168938211440293e-02 -1.0353861720966273e-02  3.4204256122879778e-02 -1.1336326296344697e-01 -1.1923112932081115e-02  2.2475043331714052e-02 -1.0473026332516860e-01 -8.1831180002587978e-03  3.8065745258732644e-02 -1.0416953184534893e-01 -1.2480319217521341e-02  1.7160831402649467e-02 -1.0767828193204479e-01 -1.2547976761933786e-02  1.3485883090234282e-01 -8.5058379874388010e-02 4.2000855491764501e-03  1.4766379178001116e-01 -5.8783011091454243e-02 5.6997581332176826e-03  1.4768622309522439e-01 -5.8082924611082325e-02 4.2595613245075052e-04  1.0081166806727899e-01 -6.4522530639046602e-02 1.1353605356194304e-02  9.2599425835465779e-02 -5.8236555915386165e-02 1.1678599252515699e-02  8.7564445043307917e-02 -6.0986502249116052e-02 7.0083307696268702e-03  8.6418350072524200e-02 -6.7587493829968176e-02 1.1574357559166561e-02  8.1011025313175777e-02 -1.3778929353697114e-01 1.0412452693541718e-02  9.1350530968326030e-02 -1.0564513470492896e-01 6.3978292848345178e-03  1.0607166664079257e-01 -1.2032126743303057e-01 1.0118569616932759e-02  9.2981675655748566e-02 -1.2955450829824119e-01 5.8849678452183038e-03  6.9383966224348573e-02 -9.7444970860644339e-02 1.1420681404584422e-02  8.1473841533912794e-02 -9.2974873564496727e-02 6.2559110103470759e-03  6.3489532673189950e-02 -1.0123672777886691e-01 7.1310192864604644e-03  7.3661379359179657e-02 -8.7415060259363783e-02 1.1505152929281431e-02  6.1146277789277989e-02 -9.3408846889785305e-02 3.9049354260809006e-03  6.5677115271356640e-02 -1.0015822193384742e-01 6.7256942527176347e-04  9.3395022521649385e-02 -1.3141804687036482e-01 -4.6352808851669643e-03  8.5855145142080078e-02 -1.1080716585524319e-01 -6.8896600330794382e-03  9.6731481264281743e-02 -1.0335461543233249e-01 -2.8510236687813236e-03  7.4794910254881081e-02 -8.0529712070116305e-02 4.9253010266634423e-03  7.0655010533361123e-02 -7.8445193046725953e-02 7.7918151222470238e-03  7.2537931268182226e-02 -8.0194463794798221e-02 1.1672543444182545e-02  8.3361617359958132e-02 -5.7353886108831825e-02 1.1704195528387381e-02  1.1986607794389499e-01 -1.0477244649434123e-01 1.5451301388068291e-03  8.1405960703496150e-02 -9.1206863125877682e-02 1.1387426984078994e-02  8.1983661187455772e-02 -7.7497874523538249e-02 1.1519964700179351e-02  4.5292729529003095e-02 -9.8295973823249144e-02 -1.2727867512713653e-02  5.6393485609940092e-02 -9.0497220153584385e-02 -8.4467332287620801e-03  5.5992738381475018e-02 -9.3678882365257565e-02 -1.2811976363571323e-02  4.7518918994040642e-02 -9.0540790587664705e-02 -1.3294269316170679e-02  1.0563215420966535e-01 -5.7666283858428757e-02 5.6768216254040448e-03  1.1409352664930215e-01 -7.1724955374570243e-02 1.0813527907197933e-02  9.1082286498730666e-02 -7.8299357546877113e-02 6.7043579782701829e-03  8.0939575536849634e-02 -6.1330147172364007e-02 -2.0298120740296628e-04  8.6024060580326314e-02 -5.3181245687575852e-02 3.9546509992844578e-03  8.0618321810359439e-02 -6.1298981205116961e-02 5.8237759053099102e-03  3.0391767333793923e-02 -1.0745309522788059e-01 -5.2189382418841163e-03  2.8841718913504951e-02 -1.0351954259870610e-01 -2.9354290369457082e-06  3.7288485560213504e-02 -1.1452691994002208e-01 6.0991232035204762e-04  3.9407760484610387e-02 -9.9880346008270754e-02 -2.7632418073565133e-03  7.6942369605279406e-02 -8.4968478883334336e-02 -1.2271174163415539e-02  2.9880795278884410e-02 -9.7941430196347587e-02 -1.3333048573935470e-02  3.3994946309938448e-02 -1.0148384108424530e-01 -8.4248497913352611e-03  6.4422536652737283e-02 -9.0741632607001479e-02 -4.6183903136224700e-03  7.8528537158604514e-02 -1.0902628368214522e-01 1.1270613552364552e-02  6.8836894185083361e-02 -1.2454902873495192e-01 6.7781000234249144e-03  6.7207272409218199e-02 -1.1079024803989618e-01 3.8743681015928383e-03  1.2065993581485716e-01 -6.7216859200779994e-02 6.1401011292783530e-03  1.0224535163984357e-01 -8.1125949065523395e-02 3.9261203721917158e-03  8.9315899738066584e-02 -6.8401774636052959e-02 3.9707174607131980e-03  9.2415164665723110e-02 -1.2925889993596246e-01 6.4495640313570106e-04  7.9979146274967078e-02 -8.8593433593697132e-02 6.6043385454096895e-05  9.8979788087294435e-02 -7.0346602323696938e-02 -6.7782563605682722e-03  8.8538604756523961e-02 -6.9788120876380810e-02 -4.4012780021132443e-03  7.6780330639345043e-02 -7.8429951282179944e-02 -7.5416978183222858e-03  6.5686797597966709e-02 -8.4386124192851381e-02 -8.2805268671000323e-03  7.5137513285897337e-02 -7.8391478979971008e-02 -2.3259209160753271e-03  8.1719177753831307e-02 -1.3956978346101934e-01 -8.3370262294344515e-03  7.6896706430318734e-02 -1.0611022264098485e-01 -1.1130922113480386e-02  7.8258755309843483e-02 -7.3186813880635943e-02 1.1740583191255089e-02  8.0032156933851545e-02 -7.0781961826876724e-02 6.7977108259180746e-03  7.9995370497544432e-02 -7.6172116696421183e-02 -1.2433889787533597e-02  7.1989929082123330e-02 -8.1138341195487351e-02 -1.2698906194960891e-02  4.2924519492964733e-02 -9.1782750909599795e-02 -5.7642585499798199e-03  3.4234267715015677e-02 -9.5704722381220478e-02 -7.3465779773757090e-03  6.3981996274917380e-02 -7.8789817497161366e-02 1.1916033775053556e-02  7.0983978193860778e-02 -7.2073317174475945e-02 1.1693967683645253e-02  5.7031687075970811e-02 -9.0027095509168861e-02 -6.4783269354769973e-04  7.7626033302490349e-02 -6.5168065436039896e-02 1.1871424340995423e-02  9.2493856690458079e-02 -5.6794040574282480e-02 -6.2514957481188283e-03  9.3006053756777729e-02 -5.6187350036366990e-02 -3.0614432055613242e-04  8.9918306169197063e-02 -1.0231332157536410e-01 1.6628324507786396e-03  9.5550967284537894e-02 -7.3142942887305537e-02 -1.3415851147171594e-04  5.0344842248424927e-02 -1.3463476203017091e-01 -5.9565228148141004e-03  5.7124270716320473e-02 -1.2330137621607944e-01 -1.0852468046195987e-02  9.6919865433788652e-02 -4.4440099351362908e-02 -2.3846771570815981e-03  9.8319923523613198e-02 -4.2725587153269511e-02 -8.0203921535792703e-03  9.0470140107244995e-02 -4.6127670337765811e-02 -5.3745858784852683e-03  9.4531436826903861e-02 -8.8726288616889817e-02 1.1195255612179739e-02  4.9615177475648427e-02 -1.1013050441040916e-01 -1.1876110621003078e-02  9.7087557200980015e-02 -5.3027708082872597e-02 7.1654533838967195e-03  9.0479925578539039e-02 -4.5168424812575811e-02 5.6806636217249162e-03  5.9520321567464174e-02 -1.2720993727577218e-01 -9.1801792771942247e-05  3.9818554602028010e-02 -1.2457569832533333e-01 -3.8734255101043622e-03  7.2260382881060889e-02 -1.0867046310103586e-01 -3.7755321735740816e-03  2.4884491347056413e-02 -9.8560685024435782e-02 -7.0242557782846790e-03  8.6654377368078433e-02 -6.6430458249167795e-02 -1.2624064227733338e-02  6.4374892500721426e-02 -8.8444201310258930e-02 1.1659862273413526e-02  2.5255301698604023e-02 -9.8067567061242505e-02 3.9692807029701963e-03  3.4836849404970525e-02 -9.5036691592935929e-02 5.0269644288549438e-03  3.4862847150897033e-02 -9.5251299074272266e-02 -5.6404672141214022e-04  1.0367716673642420e-01 -5.4102032496798465e-02 -6.9085029879165528e-03  1.0256971078058051e-01 -4.0775959786040025e-02 -1.2492591085887201e-02  9.3093356595163171e-02 -4.1847001611945163e-02 -1.3290477771144464e-02  9.6818174983439295e-02 -4.9139909632343180e-02 -1.2838465966939583e-02  4.7537756655275328e-02 -1.0179753569699829e-01 1.1696360924672642e-02  4.8584105993631915e-02 -9.5742745388555955e-02 7.3669923642791227e-03  7.4368895762060808e-02 -6.8702837547837403e-02 5.9438950256065631e-03  6.7641197900290051e-02 -7.5278768402688989e-02 4.3595283054157722e-03  4.6633856469671484e-02 -9.7662228009473148e-02 1.7981770953132883e-03  3.4098256211624774e-02 -1.0636716737605055e-01 4.0397495774395012e-03  9.2663479251429468e-02 -1.0196437595194864e-01 1.1214700737301350e-02  1.1215414880396637e-01 -8.8193558038770006e-02 6.8495469689272229e-03  3.4022573652054605e-02 -1.0061447445808501e-01 7.2118588678514867e-03  4.3680314935630890e-02 -9.1254246200620559e-02 6.0369043017551366e-03  5.2083957163191100e-02 -8.6795228661987495e-02 3.4367453965702811e-03  4.6673993696223534e-02 -9.0076368211958704e-02 -8.5116730296277672e-04  3.7651498881660458e-02 -1.0101813340276478e-01 1.1707100899406799e-02  3.9296531901728340e-02 -9.3071845138861950e-02 1.1640551889442342e-02  9.1075144377457659e-02 -5.8148409869180240e-02 -1.2803435640623386e-02  8.8868585427789193e-02 -5.0597344917171917e-02 -1.3144512971460628e-02  6.6960337638333353e-02 -7.6566267902748605e-02 -5.1675454570139934e-03  7.1023312869596275e-02 -7.3177430798264151e-02 -1.3265032865354399e-02  6.3948458404782957e-02 -8.0014243384746178e-02 -1.3493260672564966e-02  9.5740286103002573e-02 -6.1539874759276775e-02 -1.2274225255936175e-02  7.3908771739506399e-02 -6.9295803593265093e-02 -7.5739338027806281e-04  8.8414237759673928e-02 -4.9392912013269834e-02 1.1707584266032849e-02  1.0235500797124979e-01 -4.2581474585787454e-02 4.1618178263226249e-03  8.9972853694474872e-02 -4.6597094932668691e-02 -1.5964046014580255e-04  9.9006596737638466e-02 -9.2913183343715178e-02 -1.1053209731603548e-02  8.7229088157884008e-02 -8.3423147496882760e-02 -1.2064377459503072e-02  9.7648781368907395e-02 -7.2367081517631507e-02 -1.1787224186194101e-02  9.2411088908478156e-02 -7.6539830471900758e-02 1.1357222187814490e-02  6.7208616166938628e-02 -8.3829595966515943e-02 1.0601483421273615e-03  6.2162186681050460e-02 -8.0165645879718903e-02 1.2470344268389658e-03  1.1091620378071029e-01 -6.9574112467259447e-02 -1.1219266275917012e-02  1.1591753612158401e-01 -1.0919809743643083e-01 5.8892290658078238e-03  6.3272458425571082e-02 -8.7902660900137528e-02 -1.2647765070827597e-02  8.3669537051357948e-02 -5.8655813482539128e-02 -1.3053050368417411e-02  7.7834320540376978e-02 -6.6513458500375294e-02 -1.3165626981008382e-02  2.4826770963545200e-02 -9.8341084648079585e-02 -1.2091270475851500e-03  5.9792185209315528e-02 -8.2121439919979430e-02 -2.8570903534879256e-03  5.9664412137291081e-02 -8.2382543683340970e-02 -7.5681470404206164e-03  5.5925409214579225e-02 -8.5554794650331514e-02 -1.3216274433119629e-02  6.0155704637065807e-02 -8.7718985353987700e-02 7.4025420989509956e-03  4.7918496656571788e-02 -8.9215735933884321e-02 1.1933719466214712e-02  1.2649857101681539e-01 -9.7698521869006238e-02 1.0149275964949208e-02  5.6130715967340587e-02 -8.4103037880164849e-02 1.1761868878289082e-02  8.5778784204374320e-02 -5.4206102701970807e-02 -2.9242437187364479e-03  4.8591633716735354e-02 -1.0951993659261319e-01 6.6467937922908612e-03  5.4614316063596090e-02 -1.1779059279416913e-01 1.1138906690938907e-02  1.1203021377322975e-01 -4.5049140971336804e-02 -1.1915067633908871e-02  3.8872520408755794e-02 -9.4397596278186821e-02 -1.3146861254576052e-02  8.5919306116884780e-02 -5.4307768207568552e-02 -7.5171787356898478e-03  5.9233674671983483e-02 -1.2746481841410404e-01 1.1071346868199227e-02  6.0024955271738338e-02 -8.1473518696828007e-02 5.8770342731989909e-03  4.3648469412085417e-02 -1.5303274773118866e-01 1.3598664032880659e-03  3.8461880865136064e-02 -1.5460452833456542e-01 6.3893296072372588e-03  4.7785578469239365e-02 -1.3454964697024382e-01 6.6981523352411827e-03  6.7138715778048169e-02 -1.4452671418118371e-01 4.7348518027341942e-03  5.2479012369923118e-02 -1.5045488374264790e-01 1.0809841735157069e-02  6.7459787889967954e-02 -1.4456599315447957e-01 -3.4756732489729675e-03  3.8418654890275211e-02 -1.2509073608085089e-01 4.2775520991985899e-03  5.1882667432054393e-02 -8.7300088429074219e-02 -5.2725763144373730e-03  1.4875856320534228e-01 -5.8753819188616670e-02 -4.9072978403442323e-03  3.2271206740698923e-02 -1.3089163064661435e-01 -1.0976354316117458e-02  3.0312298347950753e-02 -9.6661493278613161e-02 1.1951025717645345e-02  1.4309424908260301e-01 -7.2680157971189235e-02 1.0039490992438652e-02  5.3594324059634331e-02 -1.5158608008896324e-01 -9.5446417497611243e-03  9.6775099571055845e-02 -4.7915646746257506e-02 1.1578477678391715e-02  </DataArray> 
</PointData> 
</Piece>
</UnstructuredGrid>
</VTKFile>