<?xml version="1.0"?>
<VTKFile type="UnstructuredGrid"  version="0.1"  >
<UnstructuredGrid>
<Piece  NumberOfPoints="176" NumberOfCells="626">
<Points>
<DataArray  type="Float64"  NumberOfComponents="3"  format="ascii">-1.462744779920422 0.4173062759430208 0.7927788025429325  -1.315004706961013 0.6972167789990056 0.7557377227898123  -1.24261630433174 0.4137133052539228 0.6762314288941822  -1.564690195006766 0.6196325639107423 0.6892222911693506  -0.9912607890003962 0.0887306983322423 0.7688596154928593  -1.157675661796024 0.2874316557483794 0.8237284357888865  -1.193677763294787 0.02935523231729001 0.812175874957884  -0.9819498088636408 0.1832666661363625 1  -1.370317109984933 0.6068829405856371 1  -1.374007622100844 0.09777626041767989 0.7163944533892758  -1.497526988319634 0.06223231979832809 1  -1.257318893890059 0.113297357199552 1  -1.426410269324307 -0.2746123173713337 1  -1.500573791635198 -0.1343119170450844 0.7793914918465166  -1.628642811205088 -0.2280282795420948 1  -1.553893487133441 0.2026855142925206 0.8123817161664363  -1.724055721366079 0.08454345261679307 1  -1.730806770054562 0.2680869584325063 1  -1.738241993048834 -0.1668323661063556 0.5052707113179995  -1.678786771260193 0.05495038097256552 0.6892783914122976  -1.475115822476183 -0.1061604368231795 0.5102968426790093  -1.65956562518322 0.6779485992594181 0.1896533736052345  -1.720532437548271 0.4373519509618823 0.1754478773861343  -1.709763549103771 0.6410356720050135 0.4332539624816215  -1.885130003936691 0.6421713892771141 0.270111656601095  -1.636071442661823 -0.3475227057135603 0.6780535416162582  -1.770439526340713 -0.3857097409097593 0.4625341959737544  -1.944522349779485 -0.4463810640409471 0.5920894244586623  -1.974189182631205 -0.2620616265888291 0.7298883433989083  -1.311232433775281 -0.5655346387499858 0.2575624298059242  -1.115114617145163 -0.4774046250283511 0.183365501259989  -1.389282245793132 -0.390104725039531 0.1762849063852214  -1.272047610987646 -0.2896564134506388 0.3164264087849299  -0.9290527823196455 0.3656295132424565 0  -1.190015801986949 0.4859549610262058 0.2855300420029705  -1.154952165344322 0.2392481477379702 0.1941991349140578  -0.9566144206959937 0.2747709680011161 0.2420850819122637  -0.9917877951958876 -0.08337991463409308 0.3014470703819548  -1.203640036831656 -0.08325252803474509 0.4828454397889581  -0.9711427085821456 -0.226877621308203 0.5  -0.9912607890003962 0.0887306983322422 0.5  -1.200554184744864 0.1951582901488528 0.5722415843174004  -0.9566144206959937 0.2747709680011161 0.7579149180877363  -0.9807852804032304 -0.1950903220161286 0  -1.209935812895535 -0.3819042831015633 0  -1.820860037820459 0.0940778455954159 0.8249209159235769  -1.740429359649223 -0.4716914031645397 0.8098827929228846  -1.675175657750933 -0.6607398531446582 0.8269759785572082  -1.863047176396528 -0.7149687156812052 1  -1.892475081514288 -0.6179579134933961 0.6823257906480289  -1.694030268265159 0.2521086332974301 0  -1.9123088686015 0.5525746798567135 0  -1.963291281964382 0.3727098689263164 0  -0.8818497861445191 -0.4613155571981953 0.5  -1.150536973579396 -0.480913571459282 0.4660449197857321  -0.9563006605232179 -0.2758052966743181 0.7404721885678482  -1.971763274727665 -0.286692282878117 0.4416850368765731  -1.989110983577033 -0.1105580390958591 0.2754498220525415  -1.761579966123775 -0.2663709394208962 0.2302127468000587  -1.93944788191584 -0.4631093427328397 0.312468973614769  -1.7586360996564 -0.1593651247605219 0.7674836060750635  -0.8818497861445191 -0.4613155571981952 0.7311394935597686  -1.115941880422272 -0.4305433895007025 0.796606423718511  -0.9256039491140714 -0.3769987926575506 1  -1.212002869458737 -0.2375731748946453 0.8353124047479963  -1.21000317190587 -0.3819247162339598 1  -0.9807852804032304 -0.1950903220161286 1  -1.525927344464973 -0.2393749232136364 0.2219150219271743  -1.415930250292146 -0.03013962490768879 0.2431523579218497  -1.749285118686629 -0.0940061731589974 1  -1.575027654417853 -0.4272778672614745 0.3583387676772505  -1.376556337245432 -0.4413811822579451 0.4728095292503682  -1.540546267421118 0.3160575247297414 0.5788901295650919  -1.725771647669393 0.3430097485514121 0.7545419563727896  -1.72596058113537 0.4955108474915281 0.5828909256489527  -1.969434863507119 0.3103330387327409 0.6361264082428812  -1.929321970332065 0.4964899996873173 0.7245501779474556  -1.190487498900903 0.03615294689702322 0.2137535486344003  -1.473771864508179 0.1228524379847805 0.4668768675845455  -1.986252054781623 0.1395852302816939 0.4691986221315061  -1.780044200666404 0.05311175152980256 0.4889464863196062  -1.991422321557937 0.08709063075238727 0.2572330376846003  -1.972468461473287 0.2795324016947319 0.3020560919448448  -1.720206073487053 -0.3872292339129283 1  -1.917404905726146 -0.535775296840406 1  -1.9650120031223 -0.3552390938204129 1  -1.944522349779485 -0.4463810640409477 0.772562156837397  -1.731067350347138 0.3425306741520479 0.411742788949795  -1.940529183105366 0.4595447704201737 0.2391745997996103  -1.939447881915845 0.4631093427328218 0.4952633427125438  -1.907212831476848 0.5693740628730387 1  -1.733336968666854 0.4378256679860146 1  -1.961570560806461 0.3901806440322567 1  -1.570108367541714 0.5323200146201426 0.3214131146464111  -1.4996994999672 0.3046073686345621 0.2461276645980091  -1.573062635283103 0.710522813525687 1  -1.69636532186868 0.6500391759259293 0.82538474617488  -1.664660741945468 0.560043186159905 1  -1.85285510214723 0.74856748171384 1  -1.295818339527629 -0.1133243096087688 1  -1.450441019651562 -0.2765949854519154 0  -1.5576587466791 -0.06806370280219359 0  -1.222473603421901 0.3518873350067027 0  -1.46295663988695 0.3280486082887119 0  -1.257150721370752 0.1132818288738338 0  -1.614445528027136 -0.0895553740106462 0.3477398800377443  -0.9482005564984586 -0.3025077610903928 0.2301063922394252  -1.796694049967172 -0.01478787568249089 0.2086438349576154  -1.781864168871655 0.1864306443293937 0.1730525028907116  -2 -2.449293598294706e-16 0  -1.540227286709983 -0.7594309578000181 0.7158969883666931  -1.432341127333238 -0.8020961674110092 1  -1.285361083627857 -0.7056318215590633 0.7820307561532949  -1.459371640292367 -0.5186517413535566 0.749881381869644  -1.875920433601355 0.672531273966861 0.7616887288907539  -1.34376490772025 -0.6629168230233793 0.5232079866624604  -1.146979132093379 -0.6111977257244187 0.6415714464460128  -1.285156043291617 -0.351816949472253 0.6633811875835041  -1.992530085494706 -0.07584331475312509 0.504736657287455  -1.683847711978677 -0.6637140041757016 0.3554943844166969  -1.647750840002398 -0.5800941792630666 0.5582074612571528  -1.111399709213698 0.3143340114943649 0.3936982570693697  -1.417412770778386 -0.48194566875493 1  -1.596231885380743 -0.724927919435626 1  -1.635305746268364 -0.5480427802511509 1  -1.13407750712131 -0.2153179274375809 0.6269079539693194  -1.250327345612778 0.359966722685725 1  -1.358753583540909 0.4331344014522989 0.4586164123344102  -1.877945506506339 0.6658555032582358 0.5583149631234268  -1.687422812760598 -0.5289845451979994 0.1787939533334902  -1.963291281964381 -0.3727098689263351 0  -0.9994177357697949 -0.005911827939883069 1  -1.774018349100714 -0.2423465202832379 1  -0.9819498088636408 0.1832666661363625 0  -1.161618529882714 -0.6086679473328844 1  -1.412883232192979 -0.498916897224404 0  -1.304133030842394 -0.1097012979738302 0.6789968233247218  -1.599403017832927 0.3964101795874956 1  -1.652148460867653 0.1195813693636491 0.3168599109785838  -1.465782815393488 0.1193474926581011 0  -1.295023116703767 -0.113245986996865 0  -1.820074272553176 0.817161468448121 0.4079105755413405  -1.828344611031377 -0.8016887534344467 0.501479594258776  -1.895141120398549 -0.6091691611241368 0.4773268319077155  -1.989102099333176 0.1106482423375056 0.6979439080551546  -1.99827927884208 0.01747077510592193 1  -1.979924919824271 0.2038257095690893 1  -1.027492750785988 -0.6524847028891798 0.8199378413995048  -1.436854688949139 0.2633462915169819 1  -1.292882032904074 0.2047573215974398 0.3447930596874081  -1.663935857491406 0.5750728785195803 0  -1.781648922374962 0.2379196086930771 0.5841112152691851  -1.828344611031377 -0.801688753434447 0.7315233149267526  -1.78431344816284 -0.8840652651795469 1  -1.559641239500735 -0.4052782369023943 1  -1.820074272553177 0.8171614684481179 0.2274378431626041  -1.598442001919816 0.8131212705610243 0.8005177185861571  -1.7677624176777 0.9150300652967593 1  -1.857951139271881 0.7317680986975148 0  -1.98336636214011 -0.1688841593572455 1  -0.947388990623786 0.3051831352366393 0.5363564105802381  -1.650217386037167 -0.3811273884986385 0  -0.9917877951958877 -0.08337991463409308 0.6985529296180453  -1.557364917173048 0.7833533360165803 0.4519990588587856  -1.811833783889858 0.8325783383860297 0.6875310263852326  -1.623972487846827 -0.7834420794628646 0.5282118138501414  -1.972459577229428 0.2796226049363978 0.7864098642370551  -1.98164564098219 -0.1863549344631677 0  -1.981645640982192 0.1863549344631475 0  -1.748038853727744 -0.08681450671670213 0  -1.992530085494706 -0.07584331475312481 0.7646942852785927  -1.562107303025337 -0.8714576333881834 1  -0.9256039491140714 -0.3769987926575506 0  -0.9994177357697949 -0.005911827939883069 0  -0.8370702135273155 -0.5450922451011507 1  -1.391582474002526 0.487267687798005 0.2096997911392877  </DataArray>
</Points>
<Cells>
[...]
<PointData  Vectors="f_18"> 
<DataArray  type="Float64"  Name="f_18"  NumberOfComponents="3" format="ascii">-2.7061688181028717e-02 7.9791411893296964e-03 -1.5231764060456541e-03  -2.5272594354329513e-02 1.3707310589398785e-02 -1.3100466657488380e-03  -2.9724871097930209e-02 1.0217409207675306e-02 -8.0274096683767213e-04  -2.4590158564471710e-02 1.0009568161331738e-02 -9.3838932805876416e-04  -3.8402757749350161e-02 3.8377574151582734e-03 -1.5929089614511354e-03  -3.2583093347813362e-02 8.4230989880797157e-03 -1.7562262489297165e-03  -3.3496915853675244e-02 1.1471680789423141e-03 -1.6909949222368437e-03  -3.7778311956817294e-02 7.4604633806117388e-03 -2.7363274601724455e-03  -2.6044565791735086e-02 1.1817819113124748e-02 -2.7632469278041322e-03  -3.0078231821736551e-02 2.4067449156752138e-03 -1.0669925175222615e-03  -2.8393343697247182e-02 1.4213889855707268e-03 -2.6929163389508813e-03  -3.2062758561512673e-02 3.1785039250307599e-03 -2.6964710012238862e-03  -2.8478257473236276e-02 -5.2798020782864191e-03 -2.7475874236592185e-03  -2.8210492159911345e-02 -2.2299039500556662e-03 -1.4097977989938983e-03  -2.6420272076039735e-02 -3.4890057493157933e-03 -2.7457244144572907e-03  -2.7340907678850262e-02 3.8262324462431225e-03 -1.6488654106745827e-03  -2.5925123928498550e-02 1.4874080733007255e-03 -2.7237242850061795e-03  -2.5486218237191063e-02 4.2481517602377412e-03 -2.7874684359719543e-03  -2.5654533581814309e-02 -2.2160455932276964e-03 1.4992771733710717e-04  -2.6405022818880498e-02 1.1296679658131337e-03 -9.1287750850897840e-04  -2.8602682218627325e-02 -1.7336427826494057e-03 6.7912852043285573e-05  -2.3572097944040221e-02 9.8904923653888692e-03 1.9891389628294807e-03  -2.4803677928931896e-02 6.6060471691311452e-03 2.0882445227138080e-03  -2.3590145238089371e-02 9.1017472304357559e-03 5.4759053960768658e-04  -2.2806138580694232e-02 8.0046710632307345e-03 1.5520515746983835e-03  -2.5861225247511960e-02 -5.2453961333013286e-03 -8.6142465860929293e-04  -2.4641195782695663e-02 -5.1231231943693334e-03 3.8853911699122359e-04  -2.3393443185981196e-02 -5.1119584940402772e-03 -3.5307838219322167e-04  -2.3802905248779836e-02 -2.9281913393441857e-03 -1.1748903781327246e-03  -2.6888213851441974e-02 -1.1292985021587126e-02 1.5221744342788024e-03  -3.0430019920492681e-02 -1.2763140266066831e-02 2.0203454798177773e-03  -2.8017489549775329e-02 -7.5998820302012274e-03 2.0074429728427624e-03  -3.0529847753532128e-02 -6.6694897339743429e-03 1.1543256439927522e-03  -3.5913963702215945e-02 1.4469035103564405e-02 2.9832059356368224e-03  -2.9408075517289904e-02 1.2336106541476214e-02 1.3658579857883690e-03  -3.3231055180348808e-02 7.1906042621552166e-03 1.9407803108165617e-03  -3.7188323695493714e-02 1.0852694860510111e-02 1.7259588382560075e-03  -3.8433944410511928e-02 -2.6576451516554574e-03 1.3421707871376818e-03  -3.3356956103203071e-02 -1.9362551474876027e-03 2.6805821034270956e-04  -3.7665228544884570e-02 -8.3220461607767804e-03 1.1237169802672415e-04  -3.8455520111749790e-02 3.8845238083744077e-03 1.4837375075984916e-04  -3.2687921148067574e-02 5.6571349952250043e-03 -2.1994296267245316e-04  -3.7161130771200666e-02 1.1083952674775702e-02 -1.4536291082582005e-03  -3.7703425604219569e-02 -7.1102564560156711e-03 3.1433196540325854e-03  -3.0533569759865559e-02 -9.3229124665304159e-03 2.9959138672888551e-03  -2.5082019901071423e-02 1.5462535812156180e-03 -1.7238362447415769e-03  -2.4396812916205747e-02 -6.3476785054766725e-03 -1.6337127433934155e-03  -2.3477652772088214e-02 -9.0182533196996699e-03 -1.7719180943409725e-03  -2.2316043218023721e-02 -8.3351165102787152e-03 -2.8223921577502898e-03  -2.2750652471467646e-02 -7.2102184162233639e-03 -9.4496812641679578e-04  -2.5896218309048688e-02 4.1071116424856481e-03 3.1053519821965742e-03  -2.3174991651324941e-02 6.9424755572843784e-03 3.1722641984692724e-03  -2.3640152481387629e-02 4.7551846535274474e-03 3.1441000959876735e-03  -3.4104712811586814e-02 -1.7591523270257536e-02 1.6396819809319971e-04  -2.9913068568648917e-02 -1.2220149909261995e-02 2.9841697199090256e-04  -3.7064202603168374e-02 -1.0353828315466874e-02 -1.3996321478704399e-03  -2.3733081957042896e-02 -3.1888201007713251e-03 5.1314625303050380e-04  -2.4029572001431448e-02 -1.0512057813614360e-03 1.5302367719860551e-03  -2.5206390428629454e-02 -3.5439443429088869e-03 1.7556953862507205e-03  -2.3348905142933380e-02 -5.3383849225546497e-03 1.2863941080828824e-03  -2.5487474774371032e-02 -2.0617704443556201e-03 -1.4080954583144888e-03  -3.4285153778659240e-02 -1.7591490634654965e-02 -1.2856498093603837e-03  -3.1194983585731542e-02 -1.1772953651672703e-02 -1.5471960714418069e-03  -3.5569007121110267e-02 -1.4125989229169350e-02 -2.8794429957611466e-03  -3.1923129175400064e-02 -5.9887405356701924e-03 -1.8222734165982805e-03  -3.0503171873958859e-02 -9.3593734929981898e-03 -2.7089753261342899e-03  -3.7876857924396351e-02 -7.1157374639007377e-03 -2.9208560010404241e-03  -2.7536797404788767e-02 -4.0403869466677242e-03 1.7364446197869479e-03  -2.9546001032154785e-02 -3.1766508996530573e-04 1.6418598345704293e-03  -2.5688986544129877e-02 -1.1877725133841084e-03 -2.7612887473028253e-03  -2.5894464782155173e-02 -6.7022765949985453e-03 1.0044675960541806e-03  -2.7722215621391037e-02 -8.6234011553744661e-03 2.9111025750088213e-04  -2.7035070912582747e-02 5.8311772676337362e-03 -3.0466213404333793e-04  -2.5176604095086891e-02 5.2664781307425251e-03 -1.3642424406226010e-03  -2.4427728003658916e-02 7.3140989884253752e-03 -3.1749393738857233e-04  -2.3701939451408832e-02 3.9908953086678200e-03 -6.1609726472366933e-04  -2.3283001020697445e-02 6.2274521347718938e-03 -1.1986424384939211e-03  -3.3680507224458180e-02 1.3583259902459378e-03 1.7900169602142197e-03  -2.8634489640564777e-02 2.6928778814092579e-03 3.9177352278754843e-04  -2.3988424933697235e-02 1.9121075584422581e-03 3.8519929144235806e-04  -2.5504358843080849e-02 1.0462694184999732e-03 2.5926317123062243e-04  -2.4019510935421741e-02 1.3350862357936625e-03 1.6464440010174120e-03  -2.3819116952635219e-02 3.6006644676386001e-03 1.3882638602776163e-03  -2.4963698230670094e-02 -5.3551832780967179e-03 -2.7778805606417283e-03  -2.3108989153593149e-02 -6.2402602223649373e-03 -2.8042356838364206e-03  -2.3596151514428711e-02 -4.0481481283116605e-03 -2.7781521560998768e-03  -2.3361968493915641e-02 -5.1208881969028539e-03 -1.4391639967599036e-03  -2.5193313121021365e-02 5.2287668629397528e-03 6.9676108021663244e-04  -2.3439890220642003e-02 5.7964391992880795e-03 1.7544337947992125e-03  -2.3376122747811305e-02 5.8447533675459523e-03 2.0055403619643805e-04  -2.3123737086392843e-02 7.1313235623533967e-03 -2.8224441463104637e-03  -2.4723319380850522e-02 6.5457232464497779e-03 -2.7832167668546213e-03  -2.3582125918527021e-02 4.9429195185621989e-03 -2.8399403694096366e-03  -2.5260153473796426e-02 8.8495811271571898e-03 1.2183092523622839e-03  -2.7461509069917834e-02 5.9133733781996387e-03 1.6650999620319645e-03  -2.3720338043760211e-02 1.1036397201323274e-02 -2.7160069002666503e-03  -2.3585218842434474e-02 9.3036068867130596e-03 -1.7495218568074427e-03  -2.4435094377733890e-02 8.5041123401059151e-03 -2.8118601844101922e-03  -2.2352230745060937e-02 9.2585828529081760e-03 -2.8271309146426214e-03  -3.1235950457199065e-02 -2.4882995273840976e-03 -2.7208057051695336e-03  -2.8197395082468445e-02 -5.0619778876849148e-03 3.0502406878525818e-03  -2.7711958009850924e-02 -9.0684204333771193e-04 3.0970186522091109e-03  -3.0819907499637419e-02 9.1221385256868379e-03 3.0098606051755204e-03  -2.7852043194347548e-02 6.5519658955734044e-03 3.0856452238196704e-03  -3.2108357910675137e-02 3.1830676875067177e-03 2.9677214611076547e-03  -2.6988868980082160e-02 -1.2277051641358444e-03 1.0319546750356505e-03  -3.6740484617257839e-02 -1.1333086703252502e-02 1.8472183473641438e-03  -2.5375441871961731e-02 4.8140941234441438e-05 1.8953391173426766e-03  -2.5341405360146365e-02 2.9172540734605595e-03 2.1163849110044709e-03  -2.4038000710106828e-02 2.3356335383452844e-04 3.1681296266351622e-03  -2.3305819959397296e-02 -1.1229375474702477e-02 -1.1409710764526274e-03  -2.3282614299650634e-02 -1.2752313725207139e-02 -2.7921339340460055e-03  -2.5217324657910493e-02 -1.3611773640673194e-02 -1.4653282853014167e-03  -2.6126266013660093e-02 -9.0312196814315814e-03 -1.2611989332495751e-03  -2.2629663292088074e-02 8.3796145689360516e-03 -1.3641899655544884e-03  -2.5467719111241315e-02 -1.2306635774941656e-02 8.8598694289850419e-06  -2.7768910764536386e-02 -1.4484945612600419e-02 -7.0291360992816830e-04  -2.9757895233840953e-02 -7.8864781467216129e-03 -7.6732175923289038e-04  -2.4000492356394103e-02 -6.7997194079347689e-04 1.6541666134813266e-04  -2.3476799337383263e-02 -8.9693339177201303e-03 1.0215325991034699e-03  -2.4275579107389030e-02 -8.2472701333798359e-03 -1.5435575733764605e-04  -3.3101202053615691e-02 9.6300959205088150e-03 8.4620875541863670e-04  -2.6878966973767866e-02 -8.8950240811102102e-03 -2.8074085119960926e-03  -2.3358440018945444e-02 -1.0392537711249115e-02 -2.8114705333303269e-03  -2.4602689944034136e-02 -7.9933137338911095e-03 -2.7784440896907706e-03  -3.3827660311362376e-02 -6.1465368040738398e-03 -5.8782674432751310e-04  -3.0228640079937592e-02 8.9618584010144695e-03 -2.7784587081015706e-03  -2.8079479058144091e-02 9.2980593159063176e-03 3.4291362299825739e-04  -2.2658698438234141e-02 8.3610621267640670e-03 -1.7142431281129693e-04  -2.4385613530253654e-02 -7.4079503479501504e-03 2.0395470050554045e-03  -2.3592289556183414e-02 -4.2069746441243377e-03 3.1400289534460756e-03  -3.8377845968603781e-02 5.1096686692596962e-06 -2.7525999402101798e-03  -2.5158150174057634e-02 -3.2054110713671982e-03 -2.7610483343688502e-03  -3.7802135433383899e-02 7.4256573722095136e-03 3.2001419715645273e-03  -2.7631511030175811e-02 -1.4231466064819434e-02 -2.7238652996603753e-03  -2.6720967381998886e-02 -9.1289160283669814e-03 3.0254446619894992e-03  -3.1170314093563304e-02 -2.3556947058749164e-03 -8.8944099496117391e-04  -2.6009181282929721e-02 6.7416287878412379e-03 -2.7091004832987178e-03  -2.6590465069795326e-02 2.1630336004757199e-03 1.2448839892882679e-03  -2.8756853616787387e-02 2.6399648435880439e-03 3.0342073334404256e-03  -3.1302951051746138e-02 -2.4427073264874149e-03 3.0256709035046897e-03  -2.1965452015956382e-02 1.0142048181207557e-02 7.1777133841508715e-04  -2.1884414944573782e-02 -9.3421219110719038e-03 1.4805893932973656e-04  -2.2842659826266234e-02 -7.0877234324982791e-03 3.1360301181449152e-04  -2.3964122136830003e-02 1.5111272087748168e-03 -9.9476809949232848e-04  -2.3984207338612361e-02 4.7962018175617900e-04 -2.7871901402308041e-03  -2.3918531423032033e-02 2.7071466074930586e-03 -2.8081065908224620e-03  -2.7796383377015701e-02 -1.7448565507256809e-02 -1.7286311027544907e-03  -2.8488141898701341e-02 5.5706062591744663e-03 -2.8016990504630811e-03  -3.0986900563771201e-02 5.1638334965777100e-03 1.0226545946182965e-03  -2.4327306992722911e-02 8.7159974666448977e-03 3.1209433962373079e-03  -2.5140561988821728e-02 3.5976379405653833e-03 -2.8518694951022619e-04  -2.1879848548034719e-02 -9.3707194133381792e-03 -1.2089373266903794e-03  -2.1499428030008830e-02 -1.0379529503499567e-02 -2.8109550787608004e-03  -2.6206205363116238e-02 -6.5607515953911375e-03 -2.7416530542408420e-03  -2.1993517371981196e-02 1.0130787887922396e-02 1.7919405852177678e-03  -2.2679131835787809e-02 1.1808570276533549e-02 -1.5996639575128718e-03  -2.1419715169705755e-02 1.1318527174533218e-02 -2.8557405973662180e-03  -2.2404552554412979e-02 9.0950526153295540e-03 3.1506909977982956e-03  -2.3942452896512215e-02 -1.7905158084443563e-03 -2.8403419980342205e-03  -3.6777919001454086e-02 1.2384416139350346e-02 -7.4105845930485568e-05  -2.5582016026155167e-02 -5.6487494374407874e-03 3.0765356480555676e-03  -3.8497297919015599e-02 -2.9642911524005813e-03 -1.1056274726559939e-03  -2.3127601281245771e-02 1.1887854106294154e-02 4.4436890748675561e-04  -2.1879232905030962e-02 1.0304563357401587e-02 -9.3578961999230936e-04  -2.2726221957896153e-02 -1.0699413214968864e-02 -4.0468655995898776e-05  -2.3764246629230677e-02 3.6150882338610761e-03 -1.5378722995312189e-03  -2.3971118172867383e-02 -1.9717451539228311e-03 3.1744151823929283e-03  -2.4013972603549996e-02 2.5178664347791694e-03 3.2481054977270252e-03  -2.5750449700037998e-02 -1.0391939839121418e-03 3.1367810323871433e-03  -2.3942005465167383e-02 -6.6382901304966498e-04 -1.3713918783569954e-03  -2.2120805883960277e-02 -1.2117661388306758e-02 -2.8040096387963033e-03  -3.5530734472352533e-02 -1.4102767871396096e-02 3.2788126582746538e-03  -3.8390189147656469e-02 1.3669753464019127e-04 3.3057706527824249e-03  -3.2007374786757442e-02 -2.0561740152851293e-02 -3.2385030616629545e-03  -2.7220662645507626e-02 9.7929680523945010e-03 1.8367466950688115e-03  </DataArray> 
</PointData> 
</Piece>
</UnstructuredGrid>
</VTKFile>