<?xml version="1.0"?>
<VTKFile type="UnstructuredGrid"  version="0.1"  >
<UnstructuredGrid>
<Piece  NumberOfPoints="180" NumberOfCells="626">
<Points>
<DataArray  type="Float64"  NumberOfComponents="3"  format="ascii">-1.412883232192979 -0.498916897224404 0  -1.595864871923849 -0.7076981334402126 0  -1.424974064043019 -0.8180641451546321 0  -1.496133812848886 -0.6224620133938269 0.168029496722675  -1.073831515515874 -1.381296027576066 0.4703149899896178  -1.222912435612129 -1.211258208550986 0.5924324065281698  -0.9969898328475651 -1.363191667272982 0.7007929224873214  -0.9602840871252403 -1.119883154337391 0.5000000000000003  -1.512011392687988 -0.7917510345546442 0.2966161284015407  -1.82007427255317 -0.8171614684481319 0.2701477341636163  -1.623972487846827 -0.7834420794628646 0.5282118138501414  -1.683847711978677 -0.6637140041757016 0.3554943844166969  -1.34376490772025 -0.6629168230233793 0.5232079866624604  -1.540227286709983 -0.7594309578000181 0.7158969883666931  -1.486680182709609 -0.9357655947055598 0.5005733069352488  -1.325812149253608 -0.9556560748352179 0.692162030564986  -1.334552913091629 -1.215813856519444 0.3976467594449599  -1.415326496627902 -1.118270480731319 0.5860770877722016  -1.289838922750997 -0.9992737188619498 0.3584443832289749  -1.016378813307524 -1.085925806803902 0.7785250480141073  -1.319832932085968 -1.220158808863818 0.797553015984893  -1.04215606515532 -1.265258740361177 1  -1.224143446475008 -1.257655592102634 1  -0.4088784021612257 -0.9098780294493575 0  -0.5229419073512893 -1.071131864134972 0.1858598554011229  -0.2291981602613921 -0.9704387807865139 0  -0.3199640933144202 -0.9429052360103518 0.2421718464526027  -0.8300753132502592 -1.509513793106689 1  -0.9480652577231136 -1.538949907681568 0.8061489537317872  -1.038889265765676 -1.701558295737102 1  -0.9927400037819177 -1.469592821760114 1  -1.828344611031377 -0.8016887534344467 0.501479594258776  -1.736582952516703 -0.973362741762956 0.6816999714220926  -1.828344611031377 -0.801688753434447 0.7315233149267526  -1.311232433775281 -0.5655346387499858 0.2575624298059242  -1.115114617145163 -0.4774046250283511 0.183365501259989  -1.155897705984207 -0.6056548263397348 0  -1.025812920413763 -0.6511834817819452 0.1439798677502316  -1.029314058751751 -1.277283305743657 0  -1.178992651785597 -1.60725437485166 0  -0.814899804420075 -1.518363461454386 0  -1.064430939898313 -1.438297828212334 0.1876351619911193  -1.100293793730394 -1.440233234786469 0.8308817755846929  -1.409648970501671 -1.417959626110762 0.7315592004692577  -1.259072795543131 -1.541534299303341 0.681542773860404  -1.337314418527182 -1.477323058760319 1  -1.252030506876232 -1.547313756251158 0.4762918344255788  -1.409648970501671 -1.417959626110762 0.5014885213334912  -0.4956491309591998 -1.563380666785781 0  -0.6869697439873288 -1.871540571604282 0  -0.7580030332512193 -1.620602597475575 0.200800306043187  -1.14427663396646 -0.9784691238319053 0.5430642805458707  -1.149350747726731 -1.254278997813574 0.2766244916622759  -1.460269210528559 -0.997142497751212 1  -1.536047625067858 -0.9519929514599034 0.8052694561656402  -1.588692758267181 -1.201610047034396 1  -1.696041285575386 -1.049210865804753 1  -0.9276927122636932 -1.18966297302634 0.2221042075729678  -0.8872796870605097 -1.4002985370975 0.3147842555428691  -1.288568259440269 -0.805512686298428 0.2258674758772604  -1.225520025366661 -0.794093745484538 0  -0.8818497861445191 -0.4613155571981952 0.7311394935597686  -0.8370702135273155 -0.5450922451011507 1  -1.027492750785988 -0.6524847028891798 0.8199378413995048  -0.7786461866372218 -0.6199357634264332 0.8011130297803182  -1.575027654417853 -0.4272778672614745 0.3583387676772505  -0.8639445355284535 -0.8583291060170649 0.8054362079504707  -0.6681267201658774 -1.099552128393463 0.6661740090429282  -0.6715769074605573 -0.9935685522856664 0.8357754955456658  -1.4222824581895 -1.084590503732421 0.1953208450696405  -1.63681176493991 -1.142976867755885 0.3120733790262914  -1.539885573357767 -1.261081773920541 0.4764827457208107  -1.647982157896459 -1.129365704556127 0.5912151627944675  -1.432341127333238 -0.8020961674110092 1  -1.285361083627857 -0.7056318215590633 0.7820307561532949  -1.395988323856173 -1.429170629081726 0.2701485651502452  -1.229384016800246 -0.8172292866491174 0.4411307233346597  -1.562107303025337 -0.8714576333881834 1  -0.6473028356127737 -0.7561866109268153 0.3046988722058142  -0.6622625981428886 -0.9674380054790881 0.1667270624174167  -0.4925509432611309 -0.8651541244581579 0.2340519535717435  -0.5864317813477913 -1.00499243216721 0.3747039238690006  -0.8561474899215658 -1.001364049625688 1  -0.8234030488632201 -1.227864263700687 0.7971660546693747  -0.6240956319681428 -1.097419055583654 1  -1.895141120398549 -0.6091691611241368 0.4773268319077155  -0.7019581915565072 -1.428580415300582 0.6030955109277132  -0.7677466476962631 -1.430304235837895 0.8149664493944945  -1.732293608121397 -0.981387540699419 0.4766342653695815  -1.136023885573776 -0.9739462810986533 0  -1.312143823607195 -1.118484178884738 0  -1.214077727804358 -1.08067869725745 0.1803917315920848  -0.2895078849523348 -0.9521440258122447 0.5362539270910905  -0.4925509432611309 -0.8651541244581579 0.5  -0.8003104928752021 -0.9034212800942407 0.5276102543982508  -1.031197119573864 -0.7966433949198815 0.6423524737321922  -0.9903393271760718 -0.7893858577995121 0  -1.041556514867787 -0.9879428034616119 0.2526681143367585  -1.521721023277034 -1.283215342234634 0.2410338395570504  -0.865384944162939 -0.8553394389184948 0.1720783019779129  -0.7184124931061813 -0.6933307313531918 0  -0.8515368795528185 -0.9959513296075999 0  -1.247013422168451 -1.551431171262626 0.2410943834276965  -1.105932760739789 -1.665722801080378 0.3119391242858136  -0.945887529797514 -1.75126875927484 0.2410674713138804  -1.581662913688258 -0.9018160801693318 0.1602142017296592  -1.687422812760598 -0.5289845451979994 0.1787939533334902  -1.912308868601495 -0.5525746798567313 0  -1.857951139271877 -0.7317680986975303 0  -1.886844210104414 -0.636520408863094 0.2410868471557569  -0.7773345907527112 -1.628786731198925 0.6526384974201469  -0.9654368394123369 -1.740819435585567 0.4637035560543035  -0.9481983015956591 -1.526869931125131 0.5686233152649492  -0.9632662672522199 -1.741979630576535 0.6815427738604043  -0.87374366514047 -1.789830458324557 1  -1.729293316485563 -0.9870006915470573 0.2409605973021356  -1.687765770332812 -1.064693265863366 0  -0.8551724930659974 -1.190489734935458 0  -0.7071448212676967 -1.316768067261704 0  -0.6247867466263319 -1.098639338212029 0  -0.7238313813679086 -1.185068705398414 0.1631518420404129  -1.023406865707063 -1.709833810979676 0  -0.9897573047550841 -0.8823754244453341 0.4310666916709433  -0.7588352083306384 -0.6440755103383521 0.4625780124890055  -0.7757759682717937 -1.842195283264316 0.4985126599772499  -0.7840616717201718 -1.583902828399041 0.4377923672640045  -1.322923833929898 -1.104620792539591 1  -0.7219618228038823 -1.307247678942268 1  -0.6473028356127738 -0.7561866109268152 0.6953011277941858  -0.7184124931061813 -0.6933307313531918 1  -1.534091637551517 -1.268141705127494 0.6816999714220948  -1.469898412126526 -1.346361376626702 1  -1.155280858039766 -0.8775855316856152 0.8000382702498052  -1.93944788191584 -0.4631093427328397 0.312468973614769  -1.136279175487017 -1.379948082139655 1  -1.192563088934876 -1.596117404900973 1  -1.389282245793132 -0.390104725039531 0.1762849063852214  -0.9735201934283557 -0.6570251083210682 0.4872795627034311  -0.7820125957907885 -0.6158337820042405 0.6573822497979197  -1.150536973579396 -0.480913571459282 0.4660449197857321  -0.8818497861445193 -0.4613155571981951 0.2688605064402313  -1.086061906529874 -0.729431175999589 0.3171054587016006  -1.146386478336709 -0.9597403290152839 1  -1.161618529882714 -0.6086679473328844 1  -0.7760330678762961 -1.024059073548987 0.2866398217060592  -0.573938299464078 -0.8163953297430323 1  -0.7625848589994415 -1.249272832911995 0.4545509433042903  -1.577555788316494 -1.215180484183675 0  -1.329969763722953 -1.258164074353386 0.1990057211837501  -1.45876144217584 -1.359931813775981 0  -0.9888459432127936 -0.7881904763484712 1  -0.4925834195271322 -1.072587773108498 0.7942257610232533  -0.8370702135273155 -0.5450922451011507 0  -0.7758641285073432 -0.623325711066081 0.2407365067161483  -0.8582612650818566 -1.798105973567131 0  -0.775775968271794 -1.842195283264316 0.2684499835474483  -1.120264121600167 -1.655451633991383 0.5909860504971736  -1.120264121600167 -1.655451633991383 0.7720994972236346  -0.573938299464078 -0.8163953297430323 0  -1.78431344816284 -0.8840652651795469 1  -0.4088784021612257 -0.9098780294493575 1  -0.4973685655474065 -0.8625790516973388 0.7595504241117759  -1.323743981377903 -1.488460028711005 0  -0.4224459877560165 -1.246963081678484 0  -0.5391031786369436 -1.386651023185445 0  -0.670056525276606 -1.377886873936386 0.2250212001955873  -1.963291281964381 -0.3727098689263351 0  -1.64798215789646 -1.129365704556126 0.7721847800497199  -1.209935812895535 -0.3819042831015633 0  -0.8818497861445191 -0.4613155571981953 0.5  -0.9482005564984586 -0.3025077610903928 0.2301063922394252  -1.776037932920266 -0.89954766523816 0  -1.650217386037167 -0.3811273884986385 0  -1.146979132093379 -0.6111977257244187 0.6415714464460128  -0.5521062382202796 -1.211666613348794 0.3442023460192692  -0.4792183519131534 -1.094876157717112 0.5312084515566817  -0.3199640933144202 -0.9429052360103518 0.7578281535473974  -0.9256039491140714 -0.3769987926575506 0  -0.7107840783041939 -0.9868412936944161 0  -0.7913424350245954 -1.833874833437536 0.7298481380810278  </DataArray>
</Points>
<Cells>
[...]
<PointData  Vectors="f_18"> 
<DataArray  type="Float64"  Name="f_18"  NumberOfComponents="3" format="ascii">-2.6720967381998886e-02 -9.1289160283669814e-03 3.0254446619894992e-03  -2.3558518287046689e-02 -1.0125467139817771e-02 3.0628982928546651e-03  -2.3183757308615376e-02 -1.2985582265802664e-02 3.0738103761261577e-03  -2.4851012849816379e-02 -1.0080137664064121e-02 2.0834775432451817e-03  -1.5833609076083256e-02 -2.0027551777583055e-02 2.2218463321525155e-04  -1.8417891795301646e-02 -1.7966817073415693e-02 -4.5277682989656109e-04  -1.5507131768037112e-02 -2.0977084777831747e-02 -1.1346726295517015e-03  -1.8615783352676236e-02 -2.1519309255607778e-02 8.1538502063588502e-05  -2.3079420095288523e-02 -1.1784930727558375e-02 1.3332936193617190e-03  -2.1876876936688931e-02 -9.5954517377990316e-03 1.5126378966599709e-03  -2.2726221957896153e-02 -1.0699413214968864e-02 -4.0468655995898776e-05  -2.3476799337383263e-02 -8.9693339177201303e-03 1.0215325991034699e-03  -2.5467719111241315e-02 -1.2306635774941656e-02 8.8598694289850419e-06  -2.3305819959397296e-02 -1.1229375474702477e-02 -1.1409710764526274e-03  -2.1695565564174273e-02 -1.3394846481137170e-02 8.9140588211048137e-05  -2.1710866990060244e-02 -1.5397999213068713e-02 -1.0332313875290973e-03  -1.8679615773902855e-02 -1.6713769259401854e-02 7.1703021844420696e-04  -1.9809071918349911e-02 -1.5382560120534558e-02 -4.1390811623220821e-04  -2.1200988406077717e-02 -1.6148410786905858e-02 9.1476142881891564e-04  -1.9501447897275134e-02 -2.0544272685138424e-02 -1.4798530691010610e-03  -1.8596397306943582e-02 -1.6904972644947600e-02 -1.6720030292492018e-03  -1.7008639560590989e-02 -2.0444315623167023e-02 -2.8058074520768291e-03  -1.7906752171537355e-02 -1.8162632185525020e-02 -2.8916122699865717e-03  -1.5727462215792385e-02 -3.4850319538520795e-02 3.0398431499247024e-03  -1.4748952549249759e-02 -2.9922534097734380e-02 1.9331547160433059e-03  -8.8870160358792399e-03 -3.7397747847401443e-02 2.6981533450289911e-03  -1.2339005046297447e-02 -3.6161692669333882e-02 1.6344932016940587e-03  -1.2534288216276482e-02 -2.2575089809825942e-02 -2.8942825816854110e-03  -1.3253273430009236e-02 -2.1285626858766733e-02 -1.7702002136810609e-03  -1.2579841549072686e-02 -2.0280145961697152e-02 -2.9821961940425467e-03  -1.4287729535561915e-02 -2.0959463096851240e-02 -2.9091304422319670e-03  -2.1884414944573782e-02 -9.3421219110719038e-03 1.4805893932973656e-04  -2.0915239674970366e-02 -1.1457997380800279e-02 -9.5874684368047944e-04  -2.1879848548034719e-02 -9.3707194133381792e-03 -1.2089373266903794e-03  -2.6888213851441974e-02 -1.1292985021587126e-02 1.5221744342788024e-03  -3.0430019920492681e-02 -1.2763140266066831e-02 2.0203454798177773e-03  -2.7733265054021860e-02 -1.4190429836250740e-02 2.9516997139611570e-03  -2.7899834222180966e-02 -1.7383359123391433e-02 2.1412384129434704e-03  -1.6815875788194636e-02 -2.0477065381104140e-02 2.9961483299679138e-03  -1.4248062457690829e-02 -1.8991289587748327e-02 2.9770780335941979e-03  -1.2383920223704440e-02 -2.2535520423013759e-02 2.9565686302783461e-03  -1.5157635807827701e-02 -2.0078054689600330e-02 1.8887434923592415e-03  -1.5311669989635988e-02 -1.9774477518650187e-02 -1.8960674079207323e-03  -1.6865859660786020e-02 -1.6705435921769395e-02 -1.3056607261287825e-03  -1.5158515294776506e-02 -1.8317673976310882e-02 -1.0535893861829959e-03  -1.6152516084583114e-02 -1.7546638002881851e-02 -2.8911073178021249e-03  -1.5128306426939866e-02 -1.8342105949279333e-02 1.8851539966002932e-04  -1.6886421470477770e-02 -1.6694318873473613e-02 6.8391950001452846e-05  -8.1076209542426773e-03 -2.5223466493623264e-02 2.8899425576477990e-03  -8.4190427167683251e-03 -2.2244805841264665e-02 2.9334824630122408e-03  -1.0798721479429797e-02 -2.2658086360677766e-02 1.7803196035937386e-03  -2.1470514318008688e-02 -1.8091363298450715e-02 -1.4119762883249226e-04  -1.7675592561354210e-02 -1.8959210404845141e-02 1.3909693370909332e-03  -2.1075287749728021e-02 -1.4195711334447353e-02 -2.8089946825530288e-03  -2.1427296882328240e-02 -1.3044539525522909e-02 -1.6722230639041669e-03  -1.9125596501002581e-02 -1.4240412049299371e-02 -2.8268832251574865e-03  -2.0358365846131061e-02 -1.2374088491183658e-02 -2.8559587612665780e-03  -1.7392069040968728e-02 -2.1943522459264755e-02 1.6392334349134199e-03  -1.4234657987379459e-02 -2.2126530846993727e-02 1.1014633206566037e-03  -2.3781125151354127e-02 -1.4585232959027142e-02 1.6945025176861729e-03  -2.4242338202166973e-02 -1.5353803247295692e-02 3.0277550618789317e-03  -3.4285153778659240e-02 -1.7591490634654965e-02 -1.2856498093603837e-03  -3.2007374786757442e-02 -2.0561740152851293e-02 -3.2385030616629545e-03  -2.7796383377015701e-02 -1.7448565507256809e-02 -1.7286311027544907e-03  -3.0077968727725089e-02 -2.3894341339885824e-02 -1.7418280929584716e-03  -2.5894464782155173e-02 -6.7022765949985453e-03 1.0044675960541806e-03  -2.3398568265544761e-02 -2.3054012866085962e-02 -1.6680434079394786e-03  -1.6406848233691502e-02 -2.6810581181391610e-02 -9.2617492529961144e-04  -1.8693612364176423e-02 -2.7482013772792208e-02 -1.8513111486858570e-03  -2.0158712729718222e-02 -1.5097941215182658e-02 1.8781812798469458e-03  -1.9645156777955145e-02 -1.3416912548531114e-02 1.2366907497930735e-03  -1.8556715979362839e-02 -1.4904886422030177e-02 2.4398751720193377e-04  -1.9740422998935893e-02 -1.3264541626428440e-02 -4.2171311599279132e-04  -2.3282614299650634e-02 -1.2752313725207139e-02 -2.7921339340460055e-03  -2.5217324657910493e-02 -1.3611773640673194e-02 -1.4653282853014167e-03  -1.6753189726049590e-02 -1.6833144560424788e-02 1.4435689772563532e-03  -2.3811657735424617e-02 -1.5561596150179657e-02 4.5981989926797609e-04  -2.2120805883960277e-02 -1.2117661388306758e-02 -2.8040096387963033e-03  -2.5174002101277324e-02 -2.8933807511280437e-02 1.2392709164598993e-03  -1.9191277474487001e-02 -2.7731337317957096e-02 2.0550845373081415e-03  -1.9127929145135135e-02 -3.3506963337869074e-02 1.7683271544983352e-03  -1.7207994722866309e-02 -2.9228838217845634e-02 8.3981699526700278e-04  -2.0231792225599104e-02 -2.3448561820658569e-02 -2.7733624258317949e-03  -1.5995360076483139e-02 -2.3538962909011529e-02 -1.6637948015440097e-03  -1.5871957215926245e-02 -2.7730215236587988e-02 -2.7900514110603940e-03  -2.2842659826266234e-02 -7.0877234324982791e-03 3.1360301181449152e-04  -1.2080865883693240e-02 -2.4242433259340716e-02 -5.7300599715688887e-04  -1.2784195639529384e-02 -2.3491400822881002e-02 -1.7790168106266702e-03  -2.0827119827325258e-02 -1.1550975272157635e-02 2.5203683090888333e-04  -2.1566629491380062e-02 -1.8176700976248284e-02 2.9869559719881383e-03  -1.9742745866564659e-02 -1.6487812589569689e-02 2.9934912519937944e-03  -2.0028033595482105e-02 -1.7559208039418666e-02 1.9272840140757944e-03  -1.1125711294431464e-02 -3.6849022142225608e-02 -5.0604575208820305e-05  -1.9199862665002648e-02 -3.3343118665238564e-02 3.9955410527499032e-05  -2.2072502483345621e-02 -2.4667167161972502e-02 -5.8455229907952548e-05  -2.4812061375517853e-02 -1.8875320193221960e-02 -7.0445016768887702e-04  -2.5079425474051873e-02 -1.9599559909115907e-02 2.9858766611581774e-03  -2.1182723230030516e-02 -1.9767819124592259e-02 1.4837649080542568e-03  -1.8362480627793706e-02 -1.5134769907083722e-02 1.6369932673265840e-03  -2.3481621086174340e-02 -2.2921174850178579e-02 1.9626493493016804e-03  -2.7689168192787324e-02 -2.6522167936081528e-02 3.1598025829594708e-03  -2.0286683414873743e-02 -2.3387355939212710e-02 2.9199077813498778e-03  -1.5035325065901013e-02 -1.8364782680098789e-02 1.6023089371944646e-03  -1.3293261788555428e-02 -1.9630470632286890e-02 1.1270122533002943e-03  -1.1520791343065141e-02 -2.0776568819447477e-02 1.5359812675204150e-03  -2.1804694389032812e-02 -1.2136462826347253e-02 2.1562366985898858e-03  -2.4385613530253654e-02 -7.4079503479501504e-03 2.0395470050554045e-03  -2.3103277460792156e-02 -6.3726158039847164e-03 3.1584498072872520e-03  -2.2314732578861241e-02 -8.5225535977045651e-03 3.1233342545662788e-03  -2.2722430347633514e-02 -7.4238511016444676e-03 1.6813285169437057e-03  -1.0950363564563801e-02 -2.2542689566025245e-02 -8.6448418313768796e-04  -1.1694371902234772e-02 -2.0686332870556896e-02 1.9125640025343838e-04  -1.3402075335238246e-02 -2.1243604462617360e-02 -3.9956507668633957e-04  -1.1704727296770030e-02 -2.0750539905288433e-02 -1.0881071525695324e-03  -1.0598333364722743e-02 -2.1398616744456415e-02 -2.9602480255826523e-03  -2.0798677766010416e-02 -1.1592921311478266e-02 1.6591270927238911e-03  -2.0267557250026894e-02 -1.2460145602886932e-02 3.0621915782102480e-03  -1.6836897292072397e-02 -2.3037649617020449e-02 2.9011932668111468e-03  -1.3561799158032239e-02 -2.4784276978518240e-02 2.9116231418392438e-03  -1.5804479950448931e-02 -2.7608418285670049e-02 2.8846317197157869e-03  -1.5668551814157678e-02 -2.5225750529972519e-02 1.9771476210885394e-03  -1.2418935663672406e-02 -2.0261192270082034e-02 2.9777395617416897e-03  -2.3106379881558618e-02 -2.0316417692596254e-02 4.5944794295758938e-04  -2.9364240666627156e-02 -2.4828790569287884e-02 3.5339822886123432e-04  -9.3920813534990981e-03 -2.1829925433186327e-02 1.7321345898679669e-05  -1.1410234275571101e-02 -2.2654647803672968e-02 3.7017923635886889e-04  -1.9874777109826252e-02 -1.6431653037724526e-02 -2.8290687691468318e-03  -1.3755291584581929e-02 -2.4712785111358892e-02 -2.8443438083072818e-03  -2.5057191829725226e-02 -2.9029479517362979e-02 -1.1447398785127019e-03  -2.7515772302681193e-02 -2.6480691274993643e-02 -2.8916876212726262e-03  -1.8462378667848330e-02 -1.5007168401331780e-02 -9.6548984563311685e-04  -1.7677509721305270e-02 -1.5958658927708248e-02 -2.9236630452305107e-03  -2.3112386210562441e-02 -1.7326392695875537e-02 -1.6351280042013877e-03  -2.3348905142933380e-02 -5.3383849225546497e-03 1.2863941080828824e-03  -1.6153662541972674e-02 -1.9407587551499215e-02 -2.8885425001063929e-03  -1.4416807406259294e-02 -1.9019994105612038e-02 -2.9727161074153234e-03  -2.8017489549775329e-02 -7.5998820302012274e-03 2.0074429728427624e-03  -2.8103636534728603e-02 -1.8722043454005639e-02 1.8423180872739582e-04  -3.0344545735448657e-02 -2.3612745461323248e-02 -7.4445175513970872e-04  -2.9913068568648917e-02 -1.2220149909261995e-02 2.9841697199090256e-04  -3.4081231534679124e-02 -1.7663607069474598e-02 1.5535809401545082e-03  -2.5932602699062973e-02 -1.7151315400565290e-02 1.1880373587570213e-03  -2.1790073450206292e-02 -1.8036472692567928e-02 -2.8278618678261201e-03  -2.7631511030175811e-02 -1.4231466064819434e-02 -2.7238652996603753e-03  -1.9200739884164080e-02 -2.4926906680483668e-02 1.2934456960760916e-03  -2.2205560569846856e-02 -3.1386842766309632e-02 -2.7251354005542730e-03  -1.5041059786131692e-02 -2.4357909601597921e-02 3.0113157242919861e-04  -1.9032811745070488e-02 -1.4311868266014331e-02 3.0809632277601947e-03  -1.8200302791968506e-02 -1.6867307298384145e-02 1.8636066290196886e-03  -1.7607846974279300e-02 -1.6047685814164200e-02 3.0753573529467212e-03  -2.5057567929149992e-02 -1.9696342413280773e-02 -2.7348937978474547e-03  -1.4141537299957945e-02 -3.0463457832233188e-02 -1.6828116369954063e-03  -3.2284481659581678e-02 -2.0626899996494405e-02 3.3738265107149594e-03  -3.0133350755750292e-02 -2.3841315364069519e-02 1.7656601128651114e-03  -1.0450326155033515e-02 -2.1329115245279397e-02 2.9935251025739692e-03  -9.4225507694898729e-03 -2.1809629630247681e-02 1.3679373503594910e-03  -1.3494889440067987e-02 -1.9537869690259738e-02 -5.1653859802045074e-04  -1.3478746678674630e-02 -1.9551353560651668e-02 -1.6084408551438249e-03  -2.2143396225995756e-02 -3.1252813279609784e-02 2.9058443740443821e-03  -2.1499428030008830e-02 -1.0379529503499567e-02 -2.8109550787608004e-03  -1.5770890550660336e-02 -3.5252013305485407e-02 -2.4773777750975307e-03  -1.9350104731288825e-02 -3.3242649249280457e-02 -1.5847465473610577e-03  -1.6014132111938431e-02 -1.7644357170321121e-02 3.0391666722163245e-03  -1.0027073857328525e-02 -2.9164755157598359e-02 2.8909164668555901e-03  -1.0364959756151296e-02 -2.6280771757846936e-02 2.8606031567601341e-03  -1.2216240565237431e-02 -2.4855158716589661e-02 1.5973120069671743e-03  -2.3592289556183414e-02 -4.2069746441243377e-03 3.1400289534460756e-03  -1.9773481685468323e-02 -1.3259157804252830e-02 -1.5084554848661907e-03  -3.0533569759865559e-02 -9.3229124665304159e-03 2.9959138672888551e-03  -3.4104712811586814e-02 -1.7591523270257536e-02 1.6396819809319971e-04  -3.6740484617257839e-02 -1.1333086703252502e-02 1.8472183473641438e-03  -2.1407812399735989e-02 -1.0554848740612858e-02 3.1266048083336386e-03  -2.5582016026155167e-02 -5.6487494374407874e-03 3.0765356480555676e-03  -2.7768910764536386e-02 -1.4484945612600419e-02 -7.0291360992816830e-04  -1.2767968481008710e-02 -2.7831856178005064e-02 9.2321454209456759e-04  -1.3417835004904729e-02 -3.0428821073501384e-02 -1.3026714663814644e-04  -1.2298902759527127e-02 -3.6416591836571352e-02 -1.5203238619457802e-03  -3.5530734472352533e-02 -1.4102767871396096e-02 3.2788126582746538e-03  -1.9247796544213512e-02 -2.6419831251230961e-02 2.9555214788548867e-03  -9.5728377806056659e-03 -2.1770720842687153e-02 -1.3848254731382329e-03  </DataArray> 
</PointData> 
</Piece>
</UnstructuredGrid>
</VTKFile>