<?xml version="1.0"?>
<VTKFile type="UnstructuredGrid"  version="0.1"  >
<UnstructuredGrid>
<Piece  NumberOfPoints="187" NumberOfCells="659">
<Points>
<DataArray  type="Float64"  NumberOfComponents="3"  format="ascii">1.103193596384578 0.3504086635323349 0.7926247744809052  1.167609977272698 0.4754420500101144 1  0.9531946147586513 0.2860445573368379 1  1.298466289634289 0.2582810036338386 1  1.334629349047023 0.1545402339819274 0.6080677862736639  1.481952171293317 0.069454883228632 0.4891924348618718  1.292228821875236 0.3076565757391458 0.3322186037030394  1.499512864842357 0.3016748379228968 0.4450803538138309  1.059531587242102 -0.5973251627738123 0.226746809598138  1.234689442690562 -0.4855157749746795 0  1.12700915308356 -0.3265270678978057 0.1991237339620514  1.228727303117767 -0.459331046989373 0.3236051145881703  1.304637174418844 -0.7075626243921807 0.5186954339142219  1.054700059797406 -0.6058616406515142 0.4895215437898623  1.29264339957742 -0.7108631639275693 0.248925098563288  1.438290730876674 -0.4534288042395038 0.1837168804337665  1.519369205000765 -0.6057271090750227 0  1.685940558953262 -0.4500196176801594 0.2303894085313369  1.548728803732611 -0.6572481953988726 0.3158315927164428  1.183651748105934 -0.0883654662417532 0.1686858213653584  1.475518248201104 -0.03253804452700697 0.1856409670857923  1.244700343070279 0.08518987797507366 0.2297974176709325  1.302253607553284 -0.1432650666920791 0.3118732805312475  1.404571026518731 -0.5037511239056995 0.5348683201513614  1.691569412576089 -0.5609133899741244 0.4730081079198554  1.639622120442623 -0.7656643535348759 0.5754969080455435  1.460188519029665 -0.1629806199680669 0.5487051496768689  1.300998876090121 -0.06620015533026624 0.701459469341089  1.273734645489973 -0.3733223405901023 0.6677503680638732  1.462819035581377 -0.247240831275101 0.7930628205732373  1.670473167333107 -0.1571316353029762 0.6661267788475292  1.979883779915309 -0.2042434100745073 0.712108154714385  1.818614516256198 -0.02030257729722755 0.8224734275766558  1.718772121177439 -0.3866834318575563 0.7667746127709867  1.677712194062701 -0.09696593309475177 0.3004554327500731  1.692680460452608 0.5205670870368633 0.4884510932914654  1.917169598334859 0.5365510013527777 0.5234405719839987  1.863111706926676 0.7147559870323206 0.7298487012854733  1.917475790756809 0.5355416202106846 0.7116028463733042  1.465303716475479 0.1555907954635532 0.7693066961510502  1.492196561710194 -0.008262575110031561 1  1.260567092565374 0.007573152124507587 1  1.695334600029578 0.4618342482922941 1  1.769735857858306 0.3884762685421728 0.7884801425292696  1.890226041061335 0.6253720062608139 1  1.944583770390953 0.4461785874200146 1  1.596035538136801 -0.6475556862479659 1  1.647316553768361 -0.730739989356719 0.8042598622939813  1.68486642811149 -0.4847299792061015 1  1.880033966812036 -0.6589707722934499 1  1.589046394326455 0.1734990304878107 0.2392673584508079  1.590138388628021 0.4593370694758154 0.2945152002274293  1.75161262238811 -0.3424365565861829 0.5282437615390115  1.963304819553189 -0.3725724194805271 0.4090317868572118  1.914590748157589 -0.5450523310742783 0.3184745400471098  0.9812655729033243 0.1902138304267845 0.7574987250233383  1.215050768910942 0.1386989957370904 0.8003094172228006  0.9901015080865125 0.1005010749780065 1  1.464528240804089 -0.2828999629988727 0  1.534419107269049 -0.249970942395027 0.2134224265406987  1.633398862698542 4.551914400963142e-15 0  1.74700851512454 -0.1466881081279602 0  1.972468461473286 -0.2795324016947447 0  1.990822820491096 -0.09317746723157688 0  1.77461743563473 -0.2526246580210096 0.1862321566955051  1.98001051630629 0.2029566339025678 0.5236088117471787  1.760989227500415 -0.00528833666817291 0.5050452009358164  1.980906185775178 0.1938627491739629 0.3183348412008982  1.999999999999999 6.562936821510024e-15 0.4985104204901593  0.9851205740732167 -0.1510733467044346 0.5353394748175133  1.179472118936147 -0.275639623696938 0.4699018881232729  0.9994124437091498 0.005965559133313763 0.3049757398701156  1.211266277324824 0.05376660925060736 0.4750222709998441  1.722788334576396 0.2269019344391441 0.4623229700254903  1.532068162910535 -0.3538891104669777 0.4205296918786089  1.464362911603639 0.2828702393186497 0  1.691255191910918 0.3236620266614035 0  1.235813838380573 0.2458186562328234 0  1.099182398949108 0.3880552209149545 0.1957914270122534  0.9801620048072415 0.1971449862985168 0.2440297745786687  1.098809470646287 0.4309227919496545 0.4970820672189703  0.9807852804032302 0.1950903220161293 0.5  0.9994124437091498 0.005965559133313836 0.6950242601298845  1.761211515941985 0.3028647779885489 0.2630824387328117  1.91452828856335 0.5452582327623938 0.3183348412008885  1.963304819553187 0.3725724194805456 0.4088381320164703  1.315813659229962 0.4642700054059137 0.190741969146883  1.972468461473285 0.2795324016947586 0  1.963304819553187 0.3725724194805407 0.2278315503853166  1.60847672517662 0.2976949531213646 1  1.758219163862446 0.5058320789461144 0.1873275422099707  1.464759749160692 -0.2279365418393593 1  1.60218884797417 -0.3186951767398252 1  1.396392869618368 -0.3890520924672942 1  1.939487733266301 0.4629779704363389 0  1.417000388060469 -0.4785679949273929 0.7990159217257774  1.57182247208157 -0.573028538950262 0.6727634197640624  1.965032792437917 0.3550280163567101 0.6879528036207221  1.551045726738103 -0.3625086508181027 0.6344933565110418  1.270372303020529 0.3399894720193283 0.6755547641879112  1.602160287285755 0.3797090771718592 0.6428539477659331  1.374638822880307 -0.7269623812337992 0.7816877154595647  1.741278588091689 0.126947386673496 0.7075978800613815  1.998265741253273 -0.01760822455171618 0.729856113257398  0.9566434479642242 -0.2746752779217476 1  1.15960963244366 -0.133784674508656 0.813768916263945  0.9819596813949061 -0.1831664286442689 0.7574312328675253  0.991266036546923 -0.08867741909823949 1  0.9275246612083399 -0.3706670534361827 0.7592026267743015  1.083789219068689 -0.4208873855954158 0.843718620744255  1.651706286231434 -0.492963913758677 0  1.69133149318951 -0.3236757444728861 0  1.6011203483499 -0.009784525300421199 0.8111175192995834  1.722264110875199 -0.01251126431956822 1  1.742111332403817 -0.1969314331959243 1  1.915304617909812 -0.5426990178824754 0.5362464328982399  1.961570560806462 -0.3901806440322502 0.6880758838225918  1.992543541649014 0.07570669212566944 1  1.989102099333176 -0.1106482423374983 1  1.980906734726085 -0.1938571755818702 0.3184745400471098  1.999999999999999 7.030017234740516e-15 0.2684303249375376  1.472680754612366 -0.8169236440154841 0.189840841356636  1.575155775830446 -0.7921739152598291 0  1.684658001812216 -0.707206143290794 0.1871133687462477  1.885130003936687 -0.6421713892771256 0  1.939487733266305 -0.4629779704363262 0  0.9901015080865125 0.1005010749780065 0  0.9531946147586513 0.2860445573368379 0  1.110028565937067 -0.5800778232130865 0.7539770568553924  0.9290934823066148 -0.3654953433663091 0.5  0.9256196219250848 0.3769471263237471 0.6950242601298844  1.769613665775187 0.05997591630620478 0.1684085184033754  1.970747740315366 -0.2970031768006661 1  1.764178512674736 -0.9217350799576589 0.681768998400603  1.852895194671704 -0.7484353143731675 0.5014860358011748  1.852895194671704 -0.7484353143731672 0.7315421186961406  1.820174014213996 -0.8169748649255524 0  1.858012708296992 -0.7315651328223709 0.270153780587444  1.990822820491094 0.0931774672315908 0  1.742593188394772 0.1709180888880761 1  1.731901851626541 -0.9821204655507586 0  1.421858507630868 0.5458021515535201 0.7388856714641274  1.441408417263395 0.372870218740492 1  1.211168023066412 0.540194530300085 0.7960425385136159  1.300711656090317 -0.2425005443680098 1  1.811898498971423 -0.8324572649841648 1  1.980013336132633 -0.2029280037252451 0.5237366283853655  1.354488390167804 -0.10560864479399 1  1.661746245061362 0.5816837277146546 0.7663103395431662  1.094939503450844 -0.5311189597851912 0  1.357588177110721 0.6051791325630997 0.4890122966951662  1.908887973030375 -0.5638518612336261 0.7589171845960132  1.934391696141654 -0.4797773534526505 1  1.974189182631204 0.2620616265888372 1  1.963304819553189 -0.372572419480527 0.2279172932370081  0.991266036546923 -0.08867741909823949 0  1.675712442972969 0.5076096835010768 0  1.885130003936683 0.6421713892771383 0  1.773358286409876 -0.9045609312492104 0.2410240474052892  0.9566434479642242 -0.2746752779217476 0  0.981959681394906 -0.1831664286442689 0.2425687671324747  1.759877105553066 -0.9297824466678363 0.4766530223320761  1.117097531608276 -0.7081609724092219 1  1.17332786419343 -0.4614164932755894 1  0.9275246612083398 -0.3706670534361827 0.2407973732256985  1.326819405245446 0.007980982327727537 0  0.8818750233254947 0.4612683417535055 0  1.229886675696233 0.5007899141836832 0  1.158873917003066 0.3715846019556962 0  1.605658537252647 0.6244509830031152 1  1.858012708296987 0.7315651328223847 0.4985186121010893  1.654707948355699 -0.6668018593030738 0  1.238811424842835 -0.2309781201142494 0  0.8874756245502677 -0.4507903538350485 1  1.757277036224743 0.3216215622190277 1  1.18691889078285 0.007119794952739233 0  1.381951970976821 -0.5634760338254743 1  0.9256196219250847 0.3769471263237471 0.3049757398701155  0.8874756245502677 -0.4507903538350485 0  1.388222600345667 0.5481825370432527 1  0.8523194685862787 0.5165628955080167 0.5353394748175138  1.408994663971455 0.4584005427637182 0  1.254380730905587 -0.8083467088102502 0  1.064679695988678 -0.6749731916823414 0  1.209271688098489 -0.1289204172949369 1  1.828449529456563 0.8014924648669517 1  0.8818750233254947 0.4612683417535055 1  </DataArray>
</Points>
<Cells>
[...]
<PointData  Vectors="f_18"> 
<DataArray  type="Float64"  Name="f_18"  NumberOfComponents="3" format="ascii">1.3672967050661150e-01 4.4680958065348463e-02 -6.0947719461090181e-03  1.2598849872481832e-01 5.2276395422017827e-02 -1.0817983235580175e-02  1.5458467251691038e-01 4.7620147136985869e-02 -9.2448930357921111e-03  1.2868049409697138e-01 2.6792660048804789e-02 -1.0944651577643323e-02  1.2759481866617470e-01 1.6114510344315113e-02 -2.6683466028302096e-03  1.1993353523959847e-01 6.5395817021044250e-03 1.6646290238178082e-04  1.2577519769639608e-01 3.1014524258831958e-02 3.7762489095520082e-03  1.1529517442560472e-01 2.4434946169164314e-02 1.2283744072832386e-03  1.2065993581485716e-01 -6.7216859200779994e-02 6.1401011292783530e-03  1.2118281802800437e-01 -4.6803669658366055e-02 1.1236810208566411e-02  1.3603067791099516e-01 -3.8795371073407650e-02 6.8556550670912575e-03  1.2217799077248857e-01 -4.4836190652217743e-02 3.8890021559492790e-03  1.0571269314239043e-01 -5.6561914142070728e-02 -5.4909647100651873e-04  1.1981273943610550e-01 -6.8376436411349120e-02 2.5541415677455886e-04  1.0563215420966535e-01 -5.7666283858428757e-02 5.6768216254040448e-03  1.1352283485888606e-01 -3.5005293867390784e-02 7.2716281110825499e-03  1.0511654889488407e-01 -4.1172664046014967e-02 1.1381501903647562e-02  1.0494579843131042e-01 -2.7266275488073564e-02 6.0062985798526617e-03  1.0235500797124979e-01 -4.2581474585787454e-02 4.1618178263226249e-03  1.4012059515617042e-01 -9.3893334795309702e-03 7.4578029405351111e-03  1.2046674935234265e-01 -1.5194700747364403e-03 7.0210243630207878e-03  1.3510750246996769e-01 1.0169796739669392e-02 6.2032443358549247e-03  1.3000279897806483e-01 -1.2985892157642559e-02 4.3715231559106772e-03  1.1302025694442566e-01 -3.9919402609056791e-02 -1.0877694089330282e-03  1.0211923551137209e-01 -3.2939610150733552e-02 2.2050602964581554e-04  9.6919865433788652e-02 -4.4440099351362908e-02 -2.3846771570815981e-03  1.2061183768860112e-01 -1.2481100021480661e-02 -1.2927246974976355e-03  1.3159703289104693e-01 -5.6057265951463455e-03 -4.3052043537449717e-03  1.2453500454136109e-01 -3.5811063119812067e-02 -3.8578343136843438e-03  1.1900952427831696e-01 -1.9306846092499642e-02 -7.0599207586619379e-03  1.1111288128686338e-01 -9.6199596754743787e-03 -4.3008792087368556e-03  1.0128998332367972e-01 -9.5150401697509605e-03 -6.0393568060921879e-03  1.0690509946551593e-01 -2.4254373577351442e-04 -8.3440888923000840e-03  1.0606591959056164e-01 -2.2927468320273772e-02 -6.9183629071631640e-03  1.1079422820599791e-01 -5.3910470121641130e-03 4.2382072125712322e-03  1.0314168175953384e-01 3.2889351457782406e-02 -2.7905596840624902e-04  9.7935144182116421e-02 2.8501928888575206e-02 -1.1365190787424298e-03  9.4964419290459651e-02 3.7620468351524529e-02 -6.3680193051503875e-03  9.8132931741260143e-02 2.8418083935182796e-02 -6.0140780385086866e-03  1.2051860187813668e-01 1.3856013354952779e-02 -6.3501505924864095e-03  1.2081915952738945e-01 2.1576814754590507e-04 -1.1956658917327577e-02  1.3592287096712480e-01 1.8551315091493508e-03 -1.1008010506052815e-02  1.0551774358221068e-01 2.9761242245255504e-02 -1.2481510456722422e-02  1.0452743875823223e-01 2.3963857594689032e-02 -7.4638707462778130e-03  9.7213596671207492e-02 3.3453066677697881e-02 -1.3184631757799263e-02  9.9783495996483798e-02 2.3947922508101353e-02 -1.3177293366785569e-02  1.0256971078058051e-01 -4.0775959786040025e-02 -1.2492591085887201e-02  9.8319923523613198e-02 -4.2725587153269511e-02 -8.0203921535792703e-03  1.0528899717653740e-01 -2.9319343326516149e-02 -1.2608961533068950e-02  9.6645487566696955e-02 -3.3061908019701755e-02 -1.3017728641529580e-02  1.1376426215605258e-01 1.3552959009586559e-02 5.9870702396505318e-03  1.0768575326509772e-01 3.2048898068529230e-02 4.4279861349512117e-03  1.0552967541923991e-01 -1.9679026715539599e-02 -1.1578161681840375e-03  9.9528703825718406e-02 -1.7774526211708785e-02 1.5842771925348195e-03  9.7662291103516166e-02 -2.6765972865050891e-02 3.8803408745871773e-03  1.5685196273756871e-01 3.1663371009810468e-02 -4.7468789694900945e-03  1.3710268738782833e-01 1.6717989912263444e-02 -6.6582046026806259e-03  1.6125438983263451e-01 1.8368480630066963e-02 -9.4835223725616632e-03  1.1775415503939793e-01 -2.1661805596329249e-02 1.1588887079419425e-02  1.1497722117338238e-01 -1.7893016811263006e-02 6.6181451332473374e-03  1.1301089041801635e-01 1.2732689295813966e-03 1.1484834729551660e-02  1.0806262553496322e-01 -8.0154063256880365e-03 1.1667790513869347e-02  1.0038921171657569e-01 -1.3190786581816483e-02 1.1760319600014380e-02  1.0112347720552688e-01 -3.6586416678043711e-03 1.1506693472489990e-02  1.0593889933471275e-01 -1.4095789279186461e-02 7.0960312018880263e-03  1.0097193936288053e-01 1.1461010281789049e-02 -1.1498180544201985e-03  1.0832062479070388e-01 6.6153783721366755e-04 -5.9785864778450675e-04  1.0113400508780537e-01 1.0774051606673137e-02 3.8939628454590872e-03  1.0141586506229604e-01 9.2878105876421382e-04 -6.4978385481030980e-04  1.5795477563031204e-01 -2.3027381354521724e-02 1.4778436595783506e-04  1.3442181671614964e-01 -3.1076715281979705e-02 7.1238580113397074e-04  1.5951032730574083e-01 2.0062942882804547e-03 4.2909251209409440e-03  1.3863453911950879e-01 6.9738562979079731e-03 4.8310151425407720e-04  1.0797063200986072e-01 1.5028041595550577e-02 4.3461627698411314e-04  1.1285370803127841e-01 -2.5127920586742125e-02 1.7093265251315450e-03  1.1763955942567057e-01 2.3982883092006069e-02 1.1470790157247848e-02  1.0753948263540858e-01 2.1562029330869811e-02 1.1653763008400493e-02  1.3203445840316244e-01 2.7536584154409564e-02 1.1189890973675494e-02  1.3429887979954477e-01 4.8740007997961562e-02 6.6391932005386723e-03  1.5585145661008412e-01 3.2364232910724551e-02 5.7763602031301042e-03  1.3128431380496441e-01 5.3323879496327303e-02 2.6507130769072080e-04  1.5578933037487236e-01 3.1816783706289500e-02 4.5631416391619229e-04  1.5974131722538779e-01 1.5099411990670553e-03 -3.5334563727299649e-03  1.0592994071318015e-01 1.9103261948973358e-02 5.4120319089610439e-03  9.7657246153531399e-02 2.8923401294876097e-02 3.9129542668492438e-03  9.9490232505047516e-02 1.9928347549827655e-02 1.5591503463270296e-03  1.1792904033708672e-01 4.2844454894179734e-02 7.3112614668303750e-03  1.0045982278656686e-01 1.5481047498857091e-02 1.1633185688999960e-02  9.9448395575864726e-02 1.9949383118188627e-02 6.1660315268398285e-03  1.1203645078006333e-01 2.1696784128063605e-02 -1.2221428340546757e-02  1.0170775004962479e-01 3.0371418895396414e-02 7.2367635402231460e-03  1.1998455227734700e-01 -1.7860297394363522e-02 -1.1698326149634966e-02  1.1194571716441712e-01 -2.1307633486650959e-02 -1.2401061740918059e-02  1.1877207607570536e-01 -3.2512037257356532e-02 -1.1964514430876304e-02  9.8665200194341343e-02 2.4703234573626578e-02 1.1667263234434561e-02  1.1381221320803718e-01 -3.7554473540968011e-02 -7.2964928209888289e-03  1.0507724196972672e-01 -3.7265343843576777e-02 -4.4707854601126525e-03  1.0010244466868534e-01 1.9130381462532087e-02 -5.3167300120813485e-03  1.1191754403292729e-01 -2.5296080960837391e-02 -3.5723629687398391e-03  1.2628387876391584e-01 3.4857430263298704e-02 -3.9251439959425236e-03  1.0974107385576112e-01 2.7066142166654272e-02 -3.6700922953099217e-03  1.0367716673642420e-01 -5.4102032496798465e-02 -6.9085029879165528e-03  1.0854563240311127e-01 8.9760202703164597e-03 -5.4479099413825595e-03  1.0184830178444183e-01 -8.9823377927869108e-06 -6.4559644758150122e-03  1.5496361284394561e-01 -4.3998995497083151e-02 -9.3436112137538704e-03  1.4186948425975490e-01 -1.5320865008405167e-02 -6.3779065172154753e-03  1.5731968543154878e-01 -2.9636168105449775e-02 -4.9518248596346019e-03  1.6054714518146992e-01 -1.3345267148260488e-02 -9.9208697641853909e-03  1.4875856320534228e-01 -5.8753819188616670e-02 -4.9072978403442323e-03  1.3369926553792338e-01 -5.1483522541528180e-02 -7.1593938169134674e-03  1.0512650105391935e-01 -3.0548810080902225e-02 1.1617740828329119e-02  1.0758539224469284e-01 -1.9707600142942951e-02 1.1628606609369456e-02  1.1492045272430240e-01 7.4688907837921063e-05 -7.6087224123618114e-03  1.1056590913952341e-01 2.0054358704044162e-04 -1.2478279344491652e-02  1.0886180539289857e-01 -1.1321749177000868e-02 -1.2465530864527043e-02  9.7889871387514746e-02 -2.6698067285787334e-02 -1.5938888210628203e-03  9.9775761743739935e-02 -1.8811677917450340e-02 -5.4337851791277031e-03  1.0228784253016029e-01 4.8547860430359384e-03 -1.3125731600625197e-02  1.0232825773224548e-01 -4.5084816845600562e-03 -1.3237955443492109e-02  1.0101255326084833e-01 -8.6801437011533797e-03 3.6835828910631052e-03  1.0123813562454057e-01 8.8037930817696532e-04 5.0155809392915460e-03  9.7087557200980015e-02 -5.3027708082872597e-02 7.1654533838967195e-03  9.6775099571055845e-02 -4.7915646746257506e-02 1.1578477678391715e-02  9.7870422756472966e-02 -4.0104394474240287e-02 7.1196010262200805e-03  9.6189304593278555e-02 -3.1753796846634104e-02 1.1676911743418859e-02  9.8618150162024576e-02 -2.2495335097846896e-02 1.1615969094022941e-02  1.5993036918605763e-01 1.7301894833976435e-02 9.7873558318903285e-03  1.5336112326954809e-01 4.7405820481907814e-02 1.0649319211283923e-02  1.2031171141183158e-01 -6.2467166039109720e-02 -5.5787167732598286e-03  1.4768622309522439e-01 -5.8082924611082325e-02 4.2595613245075052e-04  1.4760203242629155e-01 6.1733867802740858e-02 -3.0397463051371875e-03  1.0768452115604624e-01 4.7018478271916271e-03 7.4971098577177910e-03  1.0126741719399360e-01 -1.4287392794777415e-02 -1.2990336115157418e-02  9.0470140107244995e-02 -4.6127670337765811e-02 -5.3745858784852683e-03  9.4374154221909701e-02 -3.7070775769230915e-02 -7.6723687696697855e-04  9.4498070290955791e-02 -3.7070433394230183e-02 -6.4073184499193305e-03  9.2661170575388849e-02 -4.0745430930462560e-02 1.1749818202105952e-02  9.4380630267900029e-02 -3.6302653631145876e-02 4.9852176699520410e-03  1.0146318764585523e-01 5.7387051088414525e-03 1.1696668670815749e-02  1.0912720363175882e-01 1.1749589163249858e-02 -1.2660673528081878e-02  8.8414237759673928e-02 -4.9392912013269834e-02 1.1707584266032849e-02  1.1050534029189611e-01 4.3620382150301264e-02 -5.7695770742784503e-03  1.1723071440971802e-01 3.1392322424946620e-02 -1.2021247579271508e-02  1.1903339934764406e-01 5.4375814146952070e-02 -6.4874715016435443e-03  1.2910102391973013e-01 -2.3055511484616480e-02 -1.1166278108744742e-02  9.3093356595163171e-02 -4.1847001611945163e-02 -1.3290477771144464e-02  1.0121962897142549e-01 -9.3054644069283741e-03 -1.3161976139792995e-03  1.2837174335060905e-01 -9.1692417144717195e-03 -1.1378703808576645e-02  1.0245086173826141e-01 3.6992864885710540e-02 -6.9532369710882044e-03  1.2430010093771963e-01 -5.9785160295740956e-02 1.1214290361894790e-02  1.0940117654648077e-01 5.0362346653693699e-02 1.8976513472722159e-04  9.7777818639994921e-02 -2.7981682322239101e-02 -7.1863299615564915e-03  9.9285230773477215e-02 -2.3679304781002497e-02 -1.3069659899979496e-02  1.0169022849789647e-01 1.4399192510657117e-02 -1.3114731252323200e-02  9.9485245496344743e-02 -1.7751297474230501e-02 6.0164895304567912e-03  1.5984751794944291e-01 -1.3750790489368149e-02 1.0910109953672585e-02  1.0378954009532736e-01 3.2622934294774579e-02 1.1686386831206598e-02  9.5984848074016152e-02 3.3937108283048301e-02 1.1747018890205347e-02  9.0479925578539039e-02 -4.5168424812575811e-02 5.6806636217249162e-03  1.5387865680785276e-01 -4.3628285689857986e-02 1.0030810574996078e-02  1.5691477361774206e-01 -2.7973996865245685e-02 5.6982455351076476e-03  8.9972853694474872e-02 -4.6597094932668691e-02 -1.5964046014580255e-04  1.1091620378071029e-01 -6.9574112467259447e-02 -1.1219266275917012e-02  1.2649412376150779e-01 -4.9202816705096859e-02 -1.1045220623325519e-02  1.4766379178001116e-01 -5.8783011091454243e-02 5.6997581332176826e-03  1.2986753304805507e-01 1.6888108115140387e-03 1.1277459041861899e-02  1.4140317496279078e-01 7.5517589549136233e-02 1.0148157493649489e-02  1.2015869035328441e-01 5.0146830268893085e-02 1.1549863521220744e-02  1.3142693530331220e-01 4.3177340189834032e-02 1.1045654647375875e-02  1.0304716625135803e-01 4.1430260100162306e-02 -1.2560871679899025e-02  9.4321191273805324e-02 3.8386551071675518e-02 -6.6924630342868189e-04  9.9786965796739638e-02 -3.9420408615981700e-02 1.1660130048045381e-02  1.3236150256004930e-01 -2.4069774434386192e-02 1.0921263883332623e-02  1.4390875369733502e-01 -7.2567152334963025e-02 -9.3184238652224399e-03  1.0649914596525963e-01 2.0538896197171284e-02 -1.2582040761531573e-02  1.4105617557163960e-01 1.9628856615025903e-03 1.0550568386886078e-02  1.1203021377322975e-01 -4.5049140971336804e-02 -1.1915067633908871e-02  1.4787447613541110e-01 6.1793398252688363e-02 4.1144377255322717e-03  1.4309424908260301e-01 -7.2680157971189235e-02 1.0039490992438652e-02  1.1263068246825454e-01 4.5470846174126250e-02 -1.2222143970660154e-02  1.3647889747543412e-01 8.4478034744739167e-02 2.8295106927875147e-05  1.1438539249057318e-01 3.8345438507160386e-02 1.1665973963685922e-02  1.0081166806727899e-01 -6.4522530639046602e-02 1.1353605356194304e-02  1.1409352664930215e-01 -7.1724955374570243e-02 1.0813527907197933e-02  1.3862711297999983e-01 -1.3433067400711192e-02 -1.0862751611127168e-02  9.3609535437865890e-02 4.2265433437912434e-02 -1.3069911835784667e-02  1.4335244865134344e-01 7.6108010134024739e-02 -9.1689644243473818e-03  </DataArray> 
</PointData> 
</Piece>
</UnstructuredGrid>
</VTKFile>