<?xml version="1.0"?>
<VTKFile type="UnstructuredGrid"  version="0.1"  >
<UnstructuredGrid>
<Piece  NumberOfPoints="702" NumberOfCells="6188">
<Points>
<DataArray  type="Float64"  NumberOfComponents="3"  format="ascii">9.934620869223124 3.893722256974707 3.20251320624355  9.866795192279152 3.921606578204871 3.113111358860062  9.826582413044678 3.86458465614687 3.249921202810234  9.822477909236369 3.91807358628391 3.271212235507683  9.860356257996092 3.973502932433574 3.132112009068786  9.92861826726979 3.946112066927183 3.224184323330544  9.818308047458123 3.971630877699502 3.292627886642588  9.853887762680918 4.025496044157539 3.151221112458557  9.922588942366817 3.998595693256586 3.245949656945938  9.81410229740287 4.02530509878747 3.314121361652903  9.847397976414888 4.077626474464172 3.170401935992226  9.916536521435074 4.051206812301688 3.267784093565078  9.809894438500972 4.079114304890538 3.3356409917651  9.84088936705289 4.129918753222813 3.189617716990079  9.910473769699379 4.103966600286645 3.289658899093128  9.805723444980469 4.133075608001336 3.357139265101383  9.834372912078761 4.182405509270577 3.208828018052984  9.904421796193928 4.15690422491158 3.311543053633461  9.801661441440991 4.187206364227761 3.378551975459983  9.827879006177616 4.23512901959733 3.227986887845084  9.898403936491572 4.210069561502609 3.333407740142931  9.974003808340562 3.745374381560763 3.484492712057105  9.870588387408359 3.772979871047733 3.430968638913205  9.899624348631358 3.687139509022197 3.560467769255372  9.900811071706725 3.735566552362967 3.600890466830168  9.869885001282148 3.824515618254137 3.463138968119012  9.97111120171621 3.79538168545173 3.520683398288771  9.968163673639406 3.845443604410274 3.556980099506475  9.869060700082711 3.876085582577085 3.495427939773633  9.901858586801948 3.784031748188293 3.641450137532036  9.965199186244559 3.895612952798092 3.593353992496278  9.868194229018371 3.927725299647491 3.527778089028659  9.902863257747947 3.832556365799246 3.682075511323692  9.962261633105808 3.945898314508669 3.629790096547046  9.867346305277 3.979452082024074 3.560163398730677  9.903898277522309 3.881166733582289 3.722756957264811  9.866572959134942 4.03126223374729 3.592545194557926  9.959378186058785 3.996332344890383 3.666288951647141  9.905039185548706 3.929902823193613 3.763494101993638  9.956513789992952 4.046903888409117 3.702848324585357  9.865947179062083 4.083239706439532 3.624946527510053  9.906360294811888 3.978793930098474 3.804314641527654  9.733437488808706 3.8859869902793 3.175477467232727  9.728467981459573 3.939157589068572 3.193841997950252  9.723445801632922 3.992429272785077 3.212367301305956  9.71840565148932 4.045819057188343 3.230965429207924  9.713359098090345 4.099359828811988 3.249581687477798  9.708325560667133 4.153078706484415 3.268160037083971  9.703345252139803 4.207000211139617 3.28663389615714  9.9834258898888 3.802470667077648 3.399939356932026  9.924849832001332 3.852351726832807 3.29873097493634  9.920847478743063 3.904862876036571 3.324489011224913  9.979351486450579 3.854241406162376 3.430777134960951  9.975241776634896 3.906100472069475 3.461715519217153  9.916775852425857 3.957481934883604 3.350373238881342  9.971113630218436 3.958067617405949 3.492731511247707  9.912678321498257 4.010208537383609 3.376327407583125  9.908590213271218 4.063063228105995 3.402318593916569  9.966993472375904 4.01017528451956 3.523808874884629  9.904551125480946 4.116087928922213 3.428320242429811  9.962903224445196 4.062447886839966 3.554930912612334  9.958847023064378 4.114891403561039 3.586076110819972  9.900608852439333 4.169316132047742 3.454311455223913  9.801698519400146 3.723177313385455 3.512497987427956  9.804820875557956 3.774301555747096 3.547995085874682  9.807749641573855 3.825440252256554 3.583598894733436  9.810618790455617 3.876622132672624 3.619263525264796  9.813507801617968 3.927872281850421 3.654966068741753  9.816493766579187 3.97921364958951 3.690688822389225  9.819755898539359 4.030667676719423 3.726391243057643  9.791135137901858 3.821135807546443 3.35161947175236  9.78983802244125 3.874925088357338 3.377254257075525  9.788412959272701 3.928769974263938 3.403006207594738  9.786946659089658 3.982708043184458 3.428830225738158  9.785491629325977 4.036762289231025 3.454680470187933  9.784104820020056 4.090948198975846 3.480520429282672  9.782897502988261 4.145269126892957 3.506296446892021  9.702066418918973 3.841612499042899 3.291075545135962  9.698710200071282 3.896068389725145 3.312082306430403  9.695289455555711 3.950570906584211 3.333247316604064  9.691845807416911 4.005163339465087 3.354484322292863  9.688405811907712 4.059875938210041 3.375735357634978  9.685001890295512 4.114720220883017 3.396944830243796  9.681679380716313 4.169690599006884 3.41804236177889  10.2047835754789 3.775868320470384 3.464708749664373  10.15339137625701 3.841341290371723 3.354163319390294  10.07658753109927 3.778647455811792 3.44906249837036  10.07341690279063 3.828806514081845 3.484304757967782  10.14748164873451 3.892536655028773 3.384532618882806  10.20027486461715 3.825206683164939 3.501748322038609  10.07017870303289 3.879090162731932 3.519631318404288  10.14157711302944 3.943858556180431 3.414925232033028  10.19572834804588 3.874643866478254 3.538830353141775  10.06690705018354 3.929494247735219 3.555046058483366  10.13563730132345 3.995311258930681 3.44541009322223  10.19113984439725 3.924207856287034 3.576009254570862  10.06363336632193 3.980032628030749 3.590545974141446  10.12967967314284 4.046897122724831 3.475976275501359  10.18652912425562 3.973902020983553 3.613289368537042  10.06038984899428 4.030723794349075 3.626124093406329  10.12371905318419 4.098633427528468 3.506617275617338  10.18192848837382 4.023750703586043 3.650684605581823  10.05723879694536 4.081570653619974 3.66176501287806  10.11778658800144 4.150552413908271 3.537313924026989  10.17746172996888 4.07380122536844 3.688204846047036  10.01791439363639 3.690320005336913 3.553627441655518  10.01728602296158 3.737429709996158 3.595355316007809  10.01654348867515 3.784583734812024 3.63717818766744  10.015759370434 3.831830507533812 3.679098045658234  10.01499122696375 3.879179843927608 3.721101519238486  10.01429479145712 3.926647922889578 3.763185616340326  10.01374665215537 3.974242059620082 3.805351709479079  9.635399277602605 3.891566495111733 3.124193633517371  9.639615042696548 3.921523609916068 3.028030849582918  9.52525455025064 3.905419763016042 3.040791212567217  9.519787060402273 3.9570393949172 3.056312060698855  9.633672271294703 3.972903086466204 3.044059764591513  9.629898961743478 3.944292116262423 3.140488009830419  9.514294704842714 4.008781671245808 3.071976132217856  9.62769182864962 4.02440132965561 3.060224980011903  9.624365187482445 3.997106500898211 3.156938128851338  9.508792299051795 4.06067569246922 3.087718730850074  9.621694383270738 4.076047929439071 3.076464785832132  9.618816936297399 4.050046876498444 3.173463742769501  9.503274851673536 4.112735081105379 3.10348828713646  9.615680734580378 4.127865282552015 3.092734768994594  9.613259484819599 4.103140973671922 3.190006184122014  9.497742027098703 4.164977199877122 3.119228363433365  9.609652055552056 4.179882431371838 3.108984680749431  9.60769651064993 4.156410199403014 3.206504326225436  9.492202084339329 4.217414871557278 3.134856582007615  9.603607394545014 4.232151787870844 3.125145645267679  9.602138819348905 4.20988035904811 3.222877319648769  10.04922330263788 3.844375503708439 3.329794083911073  10.04479402796235 3.89623600302246 3.357985032276577  10.04032377516822 3.948214057902939 3.386247300831202  10.03582041442455 4.000315129598436 3.41459497831666  10.0313077634926 4.052550670026036 3.443008109256012  10.02681083015961 4.104934967705671 3.471469733917061  10.02239585843515 4.157475607021081 3.499939805848067  9.62128281064996 3.856902306518875 3.232165701381238  9.616483623700503 3.911012650499787 3.250239460239931  9.61165613241918 3.965187958688762 3.268483348325451  9.606821504621371 4.019472839694059 3.286799501504174  9.601986890003111 4.073886058155825 3.305122824735788  9.59715917658928 4.128436886113874 3.323390906036832  9.592336637328593 4.183117028689104 3.341531874596998  9.534793493679818 3.866015007894271 3.177030939027895  9.529556378392828 3.919453259781393 3.193640860882907  9.524310671767399 3.972972708051132 3.210424925570844  9.519063444019771 4.026618616012009 3.227286178613487  9.513810837949363 4.080401936303568 3.244157054460222  9.508548895291071 4.13433146609087 3.26097032572305  9.503273614622769 4.188398460384336 3.277653854056867  9.745790486095169 3.776336406982757 3.439570164691488  9.69032925204003 3.706958115919493 3.55064419534943  9.693400182857646 3.758477337208178 3.587155663125382  9.746944105969984 3.829231025931453 3.470462613146737  9.696294340496282 3.809939423832988 3.62378322566614  9.747926528637448 3.882134176516844 3.501466717649004  9.699155695425196 3.861423297981836 3.660457250857135  9.748875283549491 3.935101237571054 3.532535483534597  9.702062899145947 3.912956166817364 3.697150962287548  9.749856587220783 3.988160516132673 3.563633056785406  9.705092417287849 3.964553227380381 3.73383351122704  9.750950572373512 4.041330125742432 3.594727636487563  9.70830045843303 4.016214742180553 3.770480721872763  9.752252308372945 4.094589566814614 3.625782751557029  9.736521885443734 3.920852175846715 3.066360408730541  9.730299904937462 3.972621125223114 3.08301222217945  9.724043516964988 4.024539652517692 3.099809586109168  9.717763779164851 4.076611763352798 3.116687434044553  9.711464624090633 4.128850468666917 3.133595359544022  9.705154209411944 4.181275339279714 3.150478045712295  9.698849243263378 4.233895685838152 3.167262625534581  9.992578853674152 3.590696771773047 4.060935720749393  10.0851766176985 3.648230873466035 4.021814253432039  10.08555124471475 3.542543867395047 4.087355728448874  10.0826626275872 3.612716192152709 3.965696593024918
[...]
<CellData  Scalars="f">
<DataArray  type="Float64"  Name="f"  format="ascii">1 18446744073709551615 18446744073709551615 1 18446744073709551615 18446744073709551615 1 18446744073709551615 18446744073709551615 18446744073709551615 18446744073709551615 18446744073709551615 18446744073709551615 18446744073709551615 18446744073709551615 18446744073709551615 18446744073709551615 1 18446744073709551615 18446744073709551615 18446744073709551615 1 18446744073709551615 18446744073709551615 18446744073709551615 18446744073709551615 1 18446744073709551615 18446744073709551615 18446744073709551615 18446744073709551615 18446744073709551615 18446744073709551615 18446744073709551615 18446744073709551615 18446744073709551615 1 18446744073709551615 18446744073709551615 18446744073709551615 1 18446744073709551615 18446744073709551615 18446744073709551615 1 18446744073709551615 18446744073709551615 18446744073709551615 1 18446744073709551615 18446744073709551615 18446744073709551615 18446744073709551615 18446744073709551615 18446744073709551615 18446744073709551615 18446744073709551615 1 18446744073709551615 18446744073709551615 18446744073709551615 1 18446744073709551615 18446744073709551615 18446744073709551615 1 18446744073709551615 18446744073709551615 18446744073709551615 18446744073709551615 18446744073709551615 18446744073709551615 18446744073709551615 18446744073709551615 18446744073709551615 18446744073709551615 18446744073709551615 18446744073709551615 18446744073709551615 18446744073709551615 18446744073709551615 18446744073709551615 18446744073709551615 18446744073709551615 18446744073709551615 18446744073709551615 18446744073709551615 18446744073709551615 18446744073709551615 18446744073709551615 18446744073709551615 18446744073709551615 18446744073709551615 18446744073709551615 18446744073709551615 18446744073709551615 18446744073709551615 18446744073709551615 18446744073709551615 18446744073709551615 18446744073709551615 18446744073709551615 18446744073709551615 18446744073709551615 18446744073709551615 18446744073709551615 18446744073709551615 18446744073709551615 18446744073709551615 18446744073709551615 18446744073709551615 18446744073709551615 18446744073709551615 18446744073709551615 18446744073709551615 18446744073709551615 18446744073709551615 18446744073709551615 18446744073709551615 18446744073709551615 18446744073709551615 18446744073709551615 18446744073709551615 18446744073709551615 18446744073709551615 18446744073709551615 18446744073709551615 18446744073709551615 18446744073709551615 18446744073709551615 18446744073709551615 18446744073709551615 18446744073709551615 18446744073709551615 18446744073709551615 18446744073709551615 18446744073709551615 18446744073709551615 18446744073709551615 18446744073709551615 18446744073709551615 18446744073709551615 18446744073709551615 18446744073709551615 18446744073709551615 18446744073709551615 18446744073709551615 18446744073709551615 18446744073709551615 18446744073709551615 18446744073709551615 18446744073709551615 18446744073709551615 18446744073709551615 18446744073709551615 18446744073709551615 18446744073709551615 18446744073709551615 18446744073709551615 18446744073709551615 18446744073709551615 18446744073709551615 18446744073709551615 18446744073709551615 18446744073709551615 18446744073709551615 18446744073709551615 18446744073709551615 18446744073709551615 18446744073709551615 18446744073709551615 18446744073709551615 18446744073709551615 18446744073709551615 18446744073709551615 18446744073709551615 18446744073709551615 18446744073709551615 18446744073709551615 18446744073709551615 18446744073709551615 18446744073709551615 18446744073709551615 18446744073709551615 18446744073709551615 18446744073709551615 18446744073709551615 18446744073709551615 18446744073709551615 18446744073709551615 18446744073709551615 18446744073709551615 18446744073709551615 18446744073709551615 18446744073709551615 18446744073709551615 18446744073709551615 18446744073709551615 18446744073709551615 18446744073709551615 18446744073709551615 18446744073709551615 18446744073709551615 18446744073709551615 18446744073709551615 18446744073709551615 18446744073709551615 18446744073709551615 18446744073709551615 18446744073709551615 18446744073709551615 18446744073709551615 18446744073709551615 18446744073709551615 18446744073709551615 18446744073709551615 18446744073709551615 18446744073709551615 18446744073709551615 18446744073709551615 18446744073709551615 18446744073709551615 18446744073709551615 18446744073709551615 18446744073709551615 18446744073709551615 18446744073709551615 18446744073709551615 18446744073709551615 18446744073709551615 18446744073709551615 18446744073709551615 18446744073709551615 18446744073709551615 18446744073709551615 18446744073709551615 18446744073709551615 18446744073709551615 18446744073709551615 18446744073709551615 18446744073709551615 18446744073709551615 18446744073709551615 18446744073709551615 18446744073709551615 18446744073709551615 18446744073709551615 18446744073709551615 18446744073709551615 18446744073709551615 18446744073709551615 18446744073709551615 18446744073709551615 18446744073709551615 18446744073709551615 18446744073709551615 18446744073709551615 18446744073709551615 18446744073709551615 18446744073709551615 18446744073709551615 18446744073709551615 18446744073709551615 18446744073709551615 18446744073709551615 18446744073709551615 18446744073709551615 18446744073709551615 18446744073709551615 18446744073709551615 18446744073709551615 18446744073709551615 18446744073709551615 18446744073709551615 18446744073709551615 18446744073709551615 18446744073709551615 18446744073709551615 18446744073709551615 18446744073709551615 18446744073709551615 18446744073709551615 18446744073709551615 18446744073709551615 18446744073709551615 18446744073709551615 18446744073709551615 18446744073709551615 18446744073709551615 18446744073709551615 18446744073709551615 18446744073709551615 18446744073709551615 18446744073709551615 18446744073709551615 18446744073709551615 18446744073709551615 18446744073709551615 18446744073709551615 18446744073709551615 18446744073709551615 18446744073709551615 18446744073709551615 18446744073709551615 18446744073709551615 18446744073709551615 18446744073709551615 18446744073709551615 18446744073709551615 18446744073709551615 18446744073709551615 18446744073709551615 18446744073709551615 18446744073709551615 18446744073709551615 18446744073709551615 18446744073709551615 18446744073709551615 18446744073709551615 18446744073709551615 18446744073709551615 18446744073709551615 18446744073709551615 18446744073709551615 18446744073709551615 18446744073709551615 18446744073709551615 18446744073709551615 18446744073709551615 18446744073709551615 18446744073709551615 18446744073709551615 18446744073709551615 18446744073709551615 18446744073709551615 18446744073709551615 18446744073709551615 18446744073709551615 18446744073709551615 18446744073709551615 18446744073709551615 18446744073709551615 18446744073709551615 18446744073709551615 18446744073709551615 18446744073709551615 18446744073709551615 18446744073709551615 18446744073709551615 18446744073709551615 18446744073709551615 18446744073709551615 18446744073709551615 18446744073709551615 18446744073709551615 18446744073709551615 18446744073709551615 18446744073709551615 18446744073709551615 18446744073709551615 18446744073709551615 18446744073709551615 18446744073709551615 18446744073709551615 18446744073709551615 18446744073709551615 18446744073709551615 18446744073709551615 18446744073709551615 18446744073709551615 18446744073709551615 18446744073709551615 18446744073709551615 18446744073709551615 18446744073709551615 18446744073709551615 18446744073709551615 18446744073709551615 18446744073709551615 18446744073709551615 18446744073709551615 18446744073709551615 18446744073709551615 18446744073709551615 18446744073709551615 18446744073709551615 18446744073709551615 18446744073709551615 18446744073709551615 18446744073709551615 18446744073709551615 18446744073709551615 18446744073709551615 18446744073709551615 18446744073709551615 18446744073709551615 18446744073709551615 18446744073709551615 18446744073709551615 18446744073709551615 18446744073709551615 18446744073709551615 18446744073709551615 18446744073709551615 5 18446744073709551615 5 18446744073709551615 5 18446744073709551615 18446744073709551615 5 18446744073709551615 18446744073709551615 5 5 5 18446744073709551615 18446744073709551615 5 5 5 5 18446744073709551615 18446744073709551615 5 5 1 18446744073709551615 18446744073709551615 1 18446744073709551615 18446744073709551615 1 18446744073709551615 18446744073709551615 18446744073709551615 18446744073709551615 18446744073709551615 18446744073709551615 18446744073709551615 18446744073709551615 18446744073709551615 18446744073709551615 1 18446744073709551615 18446744073709551615 18446744073709551615 1 18446744073709551615 18446744073709551615 18446744073709551615 18446744073709551615 1 18446744073709551615 18446744073709551615 18446744073709551615 18446744073709551615 18446744073709551615 18446744073709551615 18446744073709551615 18446744073709551615 1 18446744073709551615 18446744073709551615 18446744073709551615 1 18446744073709551615 18446744073709551615 18446744073709551615 18446744073709551615 1 18446744073709551615 18446744073709551615 18446744073709551615 1 18446744073709551615 18446744073709551615 18446744073709551615 18446744073709551615 18446744073709551615 18446744073709551615 18446744073709551615 18446744073709551615 18446744073709551615 1 18446744073709551615 18446744073709551615 18446744073709551615 1 18446744073709551615 18446744073709551615 18446744073709551615 1 18446744073709551615 18446744073709551615 18446744073709551615 1 18446744073709551615 18446744073709551615 18446744073709551615 18446744073709551615 18446744073709551615 18446744073709551615 18446744073709551615 18446744073709551615 18446744073709551615 18446744073709551615 18446744073709551615 18446744073709551615 18446744073709551615 18446744073709551615 18446744073709551615 18446744073709551615 18446744073709551615 18446744073709551615 18446744073709551615 18446744073709551615 18446744073709551615 18446744073709551615 18446744073709551615 18446744073709551615 18446744073709551615 18446744073709551615 18446744073709551615 18446744073709551615 18446744073709551615 18446744073709551615 18446744073709551615 18446744073709551615 18446744073709551615 18446744073709551615 18446744073709551615 18446744073709551615 18446744073709551615 18446744073709551615 18446744073709551615 18446744073709551615 18446744073709551615 18446744073709551615 18446744073709551615 18446744073709551615 18446744073709551615 18446744073709551615 18446744073709551615 18446744073709551615 18446744073709551615 18446744073709551615 18446744073709551615 18446744073709551615 18446744073709551615 18446744073709551615 18446744073709551615 18446744073709551615 18446744073709551615 18446744073709551615 18446744073709551615 18446744073709551615 18446744073709551615 18446744073709551615 18446744073709551615 18446744073709551615 18446744073709551615 18446744073709551615 18446744073709551615 18446744073709551615 18446744073709551615 18446744073709551615 18446744073709551615 18446744073709551615 18446744073709551615 18446744073709551615 18446744073709551615 18446744073709551615 18446744073709551615 18446744073709551615 18446744073709551615 18446744073709551615 18446744073709551615 18446744073709551615 18446744073709551615 18446744073709551615 18446744073709551615 18446744073709551615 18446744073709551615 18446744073709551615 18446744073709551615 18446744073709551615 18446744073709551615 18446744073709551615 18446744073709551615 18446744073709551615 18446744073709551615 18446744073709551615 18446744073709551615 18446744073709551615 18446744073709551615 18446744073709551615 18446744073709551615 18446744073709551615 18446744073709551615 18446744073709551615 18446744073709551615 18446744073709551615 18446744073709551615 18446744073709551615 18446744073709551615 18446744073709551615 18446744073709551615 18446744073709551615 18446744073709551615 18446744073709551615 18446744073709551615 18446744073709551615 18446744073709551615 18446744073709551615 18446744073709551615 18446744073709551615 18446744073709551615 18446744073709551615 18446744073709551615 18446744073709551615 18446744073709551615 18446744073709551615 18446744073709551615 18446744073709551615 18446744073709551615 18446744073709551615 18446744073709551615 18446744073709551615 18446744073709551615 18446744073709551615 18446744073709551615 18446744073709551615 18446744073709551615 18446744073709551615 18446744073709551615 18446744073709551615 18446744073709551615 18446744073709551615 18446744073709551615 18446744073709551615 18446744073709551615 18446744073709551615 18446744073709551615 18446744073709551615 18446744073709551615 18446744073709551615 18446744073709551615 18446744073709551615 18446744073709551615 18446744073709551615 18446744073709551615 18446744073709551615 18446744073709551615 18446744073709551615 18446744073709551615 18446744073709551615 18446744073709551615 18446744073709551615 18446744073709551615 18446744073709551615 18446744073709551615 18446744073709551615 18446744073709551615 18446744073709551615 18446744073709551615 18446744073709551615 18446744073709551615 18446744073709551615 18446744073709551615 18446744073709551615 18446744073709551615 18446744073709551615 18446744073709551615 18446744073709551615 18446744073709551615 18446744073709551615 18446744073709551615 18446744073709551615 18446744073709551615 18446744073709551615 18446744073709551615 18446744073709551615 18446744073709551615 18446744073709551615 18446744073709551615 18446744073709551615 18446744073709551615 18446744073709551615 18446744073709551615 18446744073709551615 18446744073709551615 18446744073709551615 18446744073709551615 18446744073709551615 18446744073709551615 18446744073709551615 18446744073709551615 18446744073709551615 18446744073709551615 18446744073709551615 18446744073709551615 18446744073709551615 18446744073709551615 18446744073709551615 18446744073709551615 18446744073709551615 18446744073709551615 18446744073709551615 18446744073709551615 18446744073709551615 18446744073709551615 18446744073709551615 18446744073709551615 18446744073709551615 18446744073709551615 18446744073709551615 18446744073709551615 18446744073709551615 18446744073709551615 18446744073709551615 18446744073709551615 18446744073709551615 18446744073709551615 18446744073709551615 18446744073709551615 18446744073709551615 18446744073709551615 18446744073709551615 18446744073709551615 18446744073709551615 18446744073709551615 18446744073709551615 18446744073709551615 18446744073709551615 18446744073709551615 18446744073709551615 18446744073709551615 18446744073709551615 18446744073709551615 18446744073709551615 18446744073709551615 18446744073709551615 18446744073709551615 18446744073709551615 18446744073709551615 18446744073709551615 18446744073709551615 18446744073709551615 18446744073709551615 18446744073709551615 18446744073709551615 18446744073709551615 18446744073709551615 18446744073709551615 18446744073709551615 18446744073709551615 18446744073709551615 18446744073709551615 18446744073709551615 18446744073709551615 18446744073709551615 18446744073709551615 18446744073709551615 18446744073709551615 18446744073709551615 18446744073709551615 18446744073709551615 18446744073709551615 18446744073709551615 18446744073709551615 18446744073709551615 18446744073709551615 18446744073709551615 18446744073709551615 18446744073709551615 18446744073709551615 18446744073709551615 18446744073709551615 18446744073709551615 18446744073709551615 18446744073709551615 18446744073709551615 18446744073709551615 18446744073709551615 18446744073709551615 18446744073709551615 18446744073709551615 18446744073709551615 18446744073709551615 18446744073709551615 18446744073709551615 18446744073709551615 18446744073709551615 18446744073709551615 18446744073709551615 18446744073709551615 18446744073709551615 18446744073709551615 18446744073709551615 18446744073709551615 18446744073709551615 18446744073709551615 18446744073709551615 18446744073709551615 18446744073709551615 18446744073709551615 18446744073709551615 18446744073709551615 18446744073709551615 18446744073709551615 18446744073709551615 18446744073709551615 18446744073709551615 18446744073709551615 18446744073709551615 18446744073709551615 18446744073709551615 18446744073709551615 18446744073709551615 18446744073709551615 18446744073709551615 18446744073709551615 18446744073709551615 18446744073709551615 18446744073709551615 18446744073709551615 18446744073709551615 18446744073709551615 18446744073709551615 18446744073709551615 18446744073709551615 18446744073709551615 18446744073709551615 18446744073709551615 18446744073709551615 18446744073709551615 18446744073709551615 18446744073709551615 18446744073709551615 18446744073709551615 18446744073709551615 18446744073709551615 18446744073709551615 18446744073709551615 18446744073709551615 18446744073709551615 18446744073709551615 18446744073709551615 18446744073709551615 18446744073709551615 18446744073709551615 18446744073709551615 18446744073709551615 18446744073709551615 18446744073709551615 18446744073709551615 18446744073709551615 18446744073709551615 18446744073709551615 18446744073709551615 18446744073709551615 18446744073709551615 18446744073709551615 18446744073709551615 18446744073709551615 18446744073709551615 18446744073709551615 18446744073709551615 18446744073709551615 5 5 5 5 5 5 5 5 5 5 5 5 5 5 18446744073709551615 18446744073709551615 18446744073709551615 18446744073709551615 18446744073709551615 1 18446744073709551615 18446744073709551615 18446744073709551615 1 18446744073709551615 1 18446744073709551615 18446744073709551615 18446744073709551615 18446744073709551615 18446744073709551615 18446744073709551615 18446744073709551615 18446744073709551615 18446744073709551615 18446744073709551615 18446744073709551615 18446744073709551615 18446744073709551615 18446744073709551615 18446744073709551615 18446744073709551615 18446744073709551615 18446744073709551615 18446744073709551615 18446744073709551615 18446744073709551615 18446744073709551615 18446744073709551615 18446744073709551615 18446744073709551615 18446744073709551615 18446744073709551615 18446744073709551615 18446744073709551615 18446744073709551615 18446744073709551615 18446744073709551615 18446744073709551615 18446744073709551615 18446744073709551615 18446744073709551615 18446744073709551615 18446744073709551615 18446744073709551615 18446744073709551615 18446744073709551615 18446744073709551615 18446744073709551615 18446744073709551615 18446744073709551615 18446744073709551615 18446744073709551615 18446744073709551615 18446744073709551615 18446744073709551615 18446744073709551615 18446744073709551615 18446744073709551615 18446744073709551615 18446744073709551615 18446744073709551615 18446744073709551615 18446744073709551615 18446744073709551615 18446744073709551615 18446744073709551615 18446744073709551615 18446744073709551615 18446744073709551615 18446744073709551615 18446744073709551615 18446744073709551615 18446744073709551615 18446744073709551615 18446744073709551615 18446744073709551615 18446744073709551615 18446744073709551615 18446744073709551615 18446744073709551615 18446744073709551615 18446744073709551615 18446744073709551615 18446744073709551615 18446744073709551615 18446744073709551615 18446744073709551615 18446744073709551615 18446744073709551615 18446744073709551615 18446744073709551615 18446744073709551615 18446744073709551615 18446744073709551615 18446744073709551615 5 5 5 18446744073709551615 1 18446744073709551615 18446744073709551615 18446744073709551615 18446744073709551615 18446744073709551615 18446744073709551615 1 18446744073709551615 18446744073709551615 18446744073709551615 18446744073709551615 18446744073709551615 18446744073709551