<?xml version="1.0"?>
<VTKFile type="UnstructuredGrid"  version="0.1"  >
<UnstructuredGrid>
<Piece  NumberOfPoints="7805" NumberOfCells="78329">
<Points>
<DataArray  type="Float64"  NumberOfComponents="3"  format="ascii">11.46641280331104 1.978122275020119 1.394446091484733  11.35112708813064 1.969618428127058 1.427889556521546  11.35397954416854 2.055688654879765 1.298265511165015  11.34753544151227 2.002138674320801 1.248688896117169  11.34681411568483 1.907640142425082 1.391748362997348  11.46161173912474 1.91325535864852 1.356815625174671  11.34107788199354 1.948470048541591 1.198714646285942  11.34231547907771 1.845364512998333 1.355466138507336  11.45672366197889 1.84792781350578 1.319307489095343  11.33487018276668 1.894605872785707 1.148611932250708  11.33796772901803 1.782758807862701 1.319182442196807  11.45189808968412 1.782265947546264 1.281814034876885  11.32901548773711 1.840501187873724 1.098480120627111  11.33387228978227 1.719820606493373 1.282878121325721  11.44714773104993 1.716400315243423 1.24417468401477  11.44257005086261 1.65031626667854 1.206271163277489  11.33004035586849 1.656628147685703 1.246457859766936  11.32356016426388 1.786014796367966 1.048265922193724  11.4383365356169 1.583960083815935 1.167919462011583  11.32652146345419 1.593210887272218 1.209726817368533  11.31849692782392 1.731223033194754 0.9978673701063457  10.47859488461395 1.743199149549865 2.310221683024858  10.39011876681951 1.746475835728203 2.389186253413879  10.38273083948475 1.724029119284048 2.239661572515492  10.38905879737766 1.667763615780034 2.242278509007262  10.39683539946244 1.69240529673649 2.398864054048915  10.48597589267946 1.688015048236318 2.317507211734648  10.39525864057125 1.611415413315949 2.244792593467745  10.40347460904878 1.638254956620224 2.408512436685674  10.49329241959396 1.63275112263528 2.32471043883513  10.40142678604492 1.555024175394698 2.247285859556934  10.41008562860593 1.58403959932603 2.418148189787025  10.50060100487238 1.577426358742889 2.331893258842316  10.41672859369495 1.529787024632423 2.427807391808069  10.50795116995733 1.522058110705792 2.339107318438697  10.40764227875548 1.498597133978777 2.249807817571164  10.42344169225265 1.475503761082034 2.43752695641128  10.51537027436656 1.466659465806737 2.346397574449021  10.41395715113066 1.442143086847034 2.252394613525482  10.43023782909035 1.421187278292761 2.447327135254973  10.52285832381607 1.411205931080995 2.35380424121657  10.4203808474043 1.385644156210024 2.255083961648562  10.07384440300009 2.867652484362122 0.9988838334446792  9.93931560719645 2.815101466761392 1.051050733987825  9.972738172891157 2.934112266050224 0.9668503211896008  9.966072047269039 2.901635181611891 0.9128863177250769  9.934516069071915 2.781267878291238 1.001625738178947  10.06696030311994 2.833465962994294 0.9481019443133691  9.959425842429894 2.868856994805843 0.8590909179282473  9.929711494901305 2.747144366367842 0.9524412765447831  10.06008245655884 2.799001357269962 0.8975152002216805  9.95278325559406 2.835976620972172 0.8053732376148013  9.92490258874807 2.712907453786039 0.9033980831585973  10.0532050958024 2.764435935544013 0.8470299281852292  9.946129900526962 2.803116658790247 0.7516709527348717  9.920096470145698 2.678690890365685 0.8544063500451768  10.04632293512113 2.729890198317852 0.7965732375092558  9.939460190019917 2.770381152397388 0.6979083909238133  9.915300380269773 2.644616220544734 0.8053699015624201  10.03943943288159 2.695470892622834 0.7460583757039911  9.932749269500627 2.737852492527875 0.6439964423955952  9.910498489260396 2.610823167979525 0.7561635029332682  10.03251298238264 2.661270348854075 0.6953791571812216  10.19504683088765 1.728761504654526 2.022000283859359  10.20844646622608 1.70816188518386 2.128451625072066  10.0947105917528 1.702891132348889 2.133114244430004  10.09693146857657 1.646484370595371 2.127370360064911  10.21183358923589 1.651283410139894 2.123806259890633  10.1978496550444 1.673404958623024 2.007485854029059  10.09874866479027 1.590069447768875 2.121500219723802  10.21493822334777 1.59437065551028 2.11903531707719  10.20036090587878 1.618022151465165 1.992820804473827  10.10043300113196 1.533667086909613 2.115595610885951  10.21796245780892 1.537454090423338 2.114235527226385  10.20277781034868 1.562626892319416 1.978109479470885  10.10216275928515 1.477289076311859 2.109709405133873  10.22103996446715 1.48053563270176 2.109460680214795  10.20523674013423 1.507228575274416 1.963414663582168  10.10411401222196 1.420948762015484 2.103886974784413  10.22428613509263 1.423610479877239 2.104753104319987  10.20784621588217 1.451825782625738 1.948778547685905  10.10650293879604 1.364622251196227 2.098157166450642  10.2278007973906 1.366638204004045 2.100144113222089  10.21070478527804 1.396392610051209 1.934241686476412  10.19481257844674 2.809744342929746 1.020059488659643  10.15905506026988 2.725910017353736 1.085969805678843  10.05865846271482 2.76875844033121 1.067307503553064  10.05230722486923 2.734536464381002 1.019447774305598  10.15215520606293 2.691722562562689 1.039282604755108  10.18704876176698 2.77549394396123 0.9710205221928658  10.17927667814061 2.74102517403932 0.9221715315242937  10.14519964635995 2.657340109751457 0.9928195201822815  10.04593226164397 2.700080936157511 0.9718503759113888  10.17149678397162 2.70648272971731 0.8734226161829463  10.13822185348719 2.622890647071942 0.9464852057275117  10.03954387099833 2.665540875678467 0.9243889231146067  10.16372059100857 2.671966077661929 0.8247024320384952  10.13125721826391 2.588473138305201 0.9002038963499813  10.03316243897813 2.631034999094767 0.8769826539289877  10.15595557448229 2.637565012038036 0.7759339496605262  10.12434327570744 2.554191461664758 0.8538973746812526  10.02680985131729 2.596685348541171 0.829547289879725  10.14813240564908 2.603351290648383 0.7270376586068112  10.11745106892918 2.52015603588801 0.8074680551068063  10.02047886917021 2.56262459557945 0.781952467111882  9.350511439924658 3.162138770013453 0.8966186477687174  9.26965448208697 3.081672899924245 0.9191460833001595  9.263271739308633 3.238084433147525 0.8763435746775989  9.262872140308993 3.22601070431736 0.8051752274675313  9.271622758159587 3.060384006489111 0.8535791692480279  9.351187253587479 3.142651685476552 0.8292522679299522  9.26240853776925 3.213751180117589 0.733913560642102  9.273534846636771 3.038804546815204 0.7880334926727247  9.351807290098886 3.122882712186131 0.7618336724784768  9.261935947569997 3.20142038253765 0.6626000649462945  9.275432567309071 3.017092491956594 0.7224935656959957  9.35241632091868 3.103007129545416 0.6943829097834149  9.261493536319891 3.189077763420605 0.5912471214181007  9.277347716704959 2.995366508777518 0.6569394984423224  9.353051844496871 3.083132123176804 0.6269018665447744  9.261094845013268 3.176728999697758 0.5198536553581996  9.279296049802248 2.973695287403544 0.5913461455316951  9.353724886925367 3.063300209020748 0.5593783481323974  9.260764262830198 3.164364157280502 0.4484232670932624  9.281270745017054 2.952107981440859 0.5256783448076479  9.354456063229101 3.043507255540911 0.4917708227661201  9.080237711021361 2.893522927711913 1.005355680057042  9.000711149869074 2.83767445648032 1.037110542082258  9.00257713282733 2.949979667718978 0.9715234459800299  9.003738622348529 2.917445577691455 0.9131358420170691  9.001778035516782 2.802820622614381 0.9838453316914378  9.081144789381318 2.86045819393353 0.9492955683396157  9.08199722560939 2.827090334808742 0.8934280906023784  9.002809496475955 2.767707440580363 0.9308092620318847  9.00483688066152 2.884612512838711 0.8549033258405183  9.082812674231189 2.793595619573789 0.8376800395471681  9.003794465369024 2.73247061508124 0.8779307273165275  9.005898949728728 2.85165501749769 0.7967643709005591  9.083618248901201 2.760115805064863 0.7819844117171799  9.004752948517082 2.697252218387885 0.8251382351072292  9.006952612769849 2.818706249407749 0.7386751878168047  9.084451090602613 2.726760354965029 0.7262646939947003  9.005737634189856 2.662190528908788 0.7723461938831596  9.008043840628719 2.785865873367932 0.6805762647790377  9.085356948715509 2.69359514032057 0.6704365090126344  9.006841085146839 2.627383971758307 0.719437003206412  9.009230397931196 2.753189833045593 0.6223860831935671  9.850904131524921 1.726167302335155 1.972525638251317  9.785862974126916 1.704290192205449 2.060348973913038  9.743653944885722 1.741221562775228 1.926235500715024  9.745710942871922 1.689070311403944 1.905148269550998  9.788294721499913 1.649847979094624 2.047600987877935  9.852769098464083 1.672618769854572 1.954379391535095  9.747413444386536 1.637094312977516 1.88392284478203  9.790393154289985 1.595497590353434 2.034708245426453  9.854272599228427 1.619233802518522 1.936086367950948  9.748960623362205 1.585257961770524 1.862666780181131  9.792338479432409 1.541230487075422 2.021754424982781  9.855626611213973 1.565962787418255 1.917752196858533  9.750487319257227 1.533537567432861 1.841448894290203  9.794268317971765 1.487040345715662 2.008809139285025  9.856989129320263 1.512791439262414 1.899453812218128  9.7521381424219 1.481936643957248 1.820341185946113  9.796326880444138 1.432926174175502 1.995938943202618  9.858525337076911 1.459750322903204 1.88127882878612  9.754181940178542 1.430461322892599 1.799423443878255  9.798727547669129 1.378920320959055 1.983236308289197  9.860476322490655 1.40680823913118 1.863274904020841  9.250918961619394 2.013707376588747 3.365840233982101  9.146375792317491 1.959686764613508 3.295333092745922  9.259494719873731 1.968490263948421 3.282805838692333  9.266583839920157 1.921980351104521 3.308938844989155  9.152711828627011 1.912880317178977 3.32149193547875  9.258402648132513 1.96624775426431 3.392637162809253  9.273718314861782 1.875455437083497 3.335051108872095  9.159059469943569 1.866053742957618 3.347637663674076  9.265938074100212 1.918780662675375 3.41942126143037  9.280872045526566 1.82
[...]
<CellData  Scalars="f">
<DataArray  type="Float64"  Name="f"  format="ascii">1 18446744073709551615 18446744073709551615 1 18446744073709551615 18446744073709551615 1 18446744073709551615 18446744073709551615 18446744073709551615 18446744073709551615 18446744073709551615 18446744073709551615 18446744073709551615 18446744073709551615 18446744073709551615 18446744073709551615 1 18446744073709551615 18446744073709551615 1 18446744073709551615 18446744073709551615 18446744073709551615 18446744073709551615 18446744073709551615 1 18446744073709551615 18446744073709551615 18446744073709551615 18446744073709551615 1 18446744073709551615 18446744073709551615 18446744073709551615 18446744073709551615 18446744073709551615 18446744073709551615 18446744073709551615 18446744073709551615 1 18446744073709551615 18446744073709551615 18446744073709551615 1 18446744073709551615 18446744073709551615 1 18446744073709551615 18446744073709551615 18446744073709551615 18446744073709551615 18446744073709551615 18446744073709551615 18446744073709551615 18446744073709551615 18446744073709551615 18446744073709551615 1 18446744073709551615 18446744073709551615 1 18446744073709551615 18446744073709551615 1 18446744073709551615 18446744073709551615 1 18446744073709551615 18446744073709551615 18446744073709551615 18446744073709551615 18446744073709551615 18446744073709551615 18446744073709551615 18446744073709551615 18446744073709551615 18446744073709551615 18446744073709551615 18446744073709551615 18446744073709551615 18446744073709551615 18446744073709551615 18446744073709551615 18446744073709551615 18446744073709551615 18446744073709551615 18446744073709551615 18446744073709551615 18446744073709551615 18446744073709551615 18446744073709551615 18446744073709551615 18446744073709551615 18446744073709551615 18446744073709551615 18446744073709551615 18446744073709551615 18446744073709551615 18446744073709551615 18446744073709551615 18446744073709551615 18446744073709551615 18446744073709551615 18446744073709551615 18446744073709551615 18446744073709551615 18446744073709551615 18446744073709551615 18446744073709551615 18446744073709551615 18446744073709551615 18446744073709551615 18446744073709551615 18446744073709551615 18446744073709551615 18446744073709551615 18446744073709551615 18446744073709551615 18446744073709551615 18446744073709551615 18446744073709551615 18446744073709551615 18446744073709551615 18446744073709551615 18446744073709551615 18446744073709551615 18446744073709551615 18446744073709551615 18446744073709551615 18446744073709551615 18446744073709551615 18446744073709551615 18446744073709551615 18446744073709551615 18446744073709551615 18446744073709551615 18446744073709551615 18446744073709551615 18446744073709551615 18446744073709551615 18446744073709551615 18446744073709551615 18446744073709551615 18446744073709551615 18446744073709551615 18446744073709551615 18446744073709551615 18446744073709551615 18446744073709551615 18446744073709551615 18446744073709551615 18446744073709551615 18446744073709551615 18446744073709551615 18446744073709551615 18446744073709551615 18446744073709551615 18446744073709551615 18446744073709551615 18446744073709551615 18446744073709551615 18446744073709551615 18446744073709551615 18446744073709551615 18446744073709551615 18446744073709551615 18446744073709551615 18446744073709551615 18446744073709551615 18446744073709551615 18446744073709551615 18446744073709551615 18446744073709551615 18446744073709551615 18446744073709551615 18446744073709551615 18446744073709551615 18446744073709551615 18446744073709551615 18446744073709551615 18446744073709551615 18446744073709551615 18446744073709551615 18446744073709551615 18446744073709551615 18446744073709551615 18446744073709551615 18446744073709551615 18446744073709551615 18446744073709551615 18446744073709551615 18446744073709551615 18446744073709551615 18446744073709551615 18446744073709551615 18446744073709551615 18446744073709551615 18446744073709551615 18446744073709551615 18446744073709551615 18446744073709551615 18446744073709551615 18446744073709551615 18446744073709551615 18446744073709551615 18446744073709551615 18446744073709551615 18446744073709551615 18446744073709551615 18446744073709551615 18446744073709551615 18446744073709551615 18446744073709551615 18446744073709551615 18446744073709551615 18446744073709551615 18446744073709551615 18446744073709551615 18446744073709551615 18446744073709551615 18446744073709551615 18446744073709551615 18446744073709551615 18446744073709551615 18446744073709551615 18446744073709551615 18446744073709551615 18446744073709551615 18446744073709551615 18446744073709551615 18446744073709551615 18446744073709551615 18446744073709551615 18446744073709551615 18446744073709551615 18446744073709551615 18446744073709551615 18446744073709551615 18446744073709551615 18446744073709551615 18446744073709551615 18446744073709551615 18446744073709551615 18446744073709551615 18446744073709551615 18446744073709551615 18446744073709551615 18446744073709551615 18446744073709551615 18446744073709551615 18446744073709551615 18446744073709551615 18446744073709551615 18446744073709551615 18446744073709551615 18446744073709551615 18446744073709551615 18446744073709551615 18446744073709551615 18446744073709551615 18446744073709551615 18446744073709551615 18446744073709551615 18446744073709551615 18446744073709551615 18446744073709551615 18446744073709551615 18446744073709551615 18446744073709551615 18446744073709551615 18446744073709551615 18446744073709551615 18446744073709551615 18446744073709551615 18446744073709551615 18446744073709551615 18446744073709551615 18446744073709551615 18446744073709551615 18446744073709551615 18446744073709551615 18446744073709551615 18446744073709551615 18446744073709551615 18446744073709551615 18446744073709551615 18446744073709551615 18446744073709551615 18446744073709551615 18446744073709551615 18446744073709551615 18446744073709551615 18446744073709551615 18446744073709551615 18446744073709551615 18446744073709551615 18446744073709551615 18446744073709551615 18446744073709551615 18446744073709551615 18446744073709551615 18446744073709551615 18446744073709551615 18446744073709551615 18446744073709551615 18446744073709551615 18446744073709551615 18446744073709551615 18446744073709551615 18446744073709551615 18446744073709551615 18446744073709551615 18446744073709551615 18446744073709551615 18446744073709551615 18446744073709551615 18446744073709551615 18446744073709551615 18446744073709551615 18446744073709551615 18446744073709551615 18446744073709551615 18446744073709551615 18446744073709551615 18446744073709551615 18446744073709551615 18446744073709551615 18446744073709551615 18446744073709551615 18446744073709551615 18446744073709551615 18446744073709551615 18446744073709551615 18446744073709551615 18446744073709551615 18446744073709551615 18446744073709551615 18446744073709551615 18446744073709551615 18446744073709551615 18446744073709551615 18446744073709551615 18446744073709551615 18446744073709551615 18446744073709551615 18446744073709551615 18446744073709551615 18446744073709551615 18446744073709551615 18446744073709551615 18446744073709551615 18446744073709551615 18446744073709551615 18446744073709551615 18446744073709551615 18446744073709551615 18446744073709551615 18446744073709551615 18446744073709551615 18446744073709551615 18446744073709551615 18446744073709551615 18446744073709551615 18446744073709551615 18446744073709551615 18446744073709551615 18446744073709551615 18446744073709551615 18446744073709551615 18446744073709551615 18446744073709551615 18446744073709551615 18446744073709551615 18446744073709551615 18446744073709551615 18446744073709551615 18446744073709551615 18446744073709551615 18446744073709551615 18446744073709551615 18446744073709551615 18446744073709551615 18446744073709551615 18446744073709551615 18446744073709551615 18446744073709551615 18446744073709551615 18446744073709551615 18446744073709551615 18446744073709551615 18446744073709551615 18446744073709551615 18446744073709551615 18446744073709551615 18446744073709551615 18446744073709551615 18446744073709551615 18446744073709551615 18446744073709551615 18446744073709551615 18446744073709551615 18446744073709551615 18446744073709551615 18446744073709551615 18446744073709551615 18446744073709551615 18446744073709551615 18446744073709551615 18446744073709551615 18446744073709551615 18446744073709551615 18446744073709551615 18446744073709551615 18446744073709551615 18446744073709551615 18446744073709551615 18446744073709551615 18446744073709551615 18446744073709551615 18446744073709551615 18446744073709551615 18446744073709551615 18446744073709551615 18446744073709551615 18446744073709551615 18446744073709551615 18446744073709551615 18446744073709551615 18446744073709551615 18446744073709551615 18446744073709551615 18446744073709551615 18446744073709551615 18446744073709551615 18446744073709551615 18446744073709551615 18446744073709551615 18446744073709551615 18446744073709551615 18446744073709551615 18446744073709551615 5 5 5 5 5 5 5 18446744073709551615 18446744073709551615 5 5 5 5 5 5 5 1 18446744073709551615 18446744073709551615 1 18446744073709551615 18446744073709551615 1 18446744073709551615 18446744073709551615 18446744073709551615 18446744073709551615 18446744073709551615 18446744073709551615 18446744073709551615 18446744073709551615 18446744073709551615 18446744073709551615 1 18446744073709551615 18446744073709551615 18446744073709551615 1 18446744073709551615 18446744073709551615 18446744073709551615 18446744073709551615 1 18446744073709551615 18446744073709551615 18446744073709551615 18446744073709551615 18446744073709551615 18446744073709551615 18446744073709551615 18446744073709551615 18446744073709551615 1 18446744073709551615 18446744073709551615 18446744073709551615 1 18446744073709551615 18446744073709551615 18446744073709551615 1 18446744073709551615 18446744073709551615 18446744073709551615 1 18446744073709551615 18446744073709551615 18446744073709551615 18446744073709551615 18446744073709551615 18446744073709551615 18446744073709551615 18446744073709551615 1 18446744073709551615 18446744073709551615 18446744073709551615 1 18446744073709551615 18446744073709551615 18446744073709551615 1 18446744073709551615 18446744073709551615 18446744073709551615 18446744073709551615 18446744073709551615 18446744073709551615 18446744073709551615 18446744073709551615 18446744073709551615 18446744073709551615 18446744073709551615 18446744073709551615 18446744073709551615 18446744073709551615 18446744073709551615 18446744073709551615 18446744073709551615 18446744073709551615 18446744073709551615 18446744073709551615 18446744073709551615 18446744073709551615 18446744073709551615 18446744073709551615 18446744073709551615 18446744073709551615 18446744073709551615 18446744073709551615 18446744073709551615 18446744073709551615 18446744073709551615 18446744073709551615 18446744073709551615 18446744073709551615 18446744073709551615 18446744073709551615 18446744073709551615 18446744073709551615 18446744073709551615 18446744073709551615 18446744073709551615 18446744073709551615 18446744073709551615 18446744073709551615 18446744073709551615 18446744073709551615 18446744073709551615 18446744073709551615 18446744073709551615 18446744073709551615 18446744073709551615 18446744073709551615 18446744073709551615 18446744073709551615 18446744073709551615 18446744073709551615 18446744073709551615 18446744073709551615 18446744073709551615 18446744073709551615 18446744073709551615 18446744073709551615 18446744073709551615 18446744073709551615 18446744073709551615 18446744073709551615 18446744073709551615 18446744073709551615 18446744073709551615 18446744073709551615 18446744073709551615 18446744073709551615 18446744073709551615 18446744073709551615 18446744073709551615 18446744073709551615 18446744073709551615 18446744073709551615 18446744073709551615 18446744073709551615 18446744073709551615 18446744073709551615 18446744073709551615 18446744073709551615 18446744073709551615 18446744073709551615 18446744073709551615 18446744073709551615 18446744073709551615 18446744073709551615 18446744073709551615 18446744073709551615 18446744073709551615 18446744073709551615 18446744073709551615 18446744073709551615 18446744073709551615 18446744073709551615 18446744073709551615 18446744073709551615 18446744073709551615 18446744073709551615 18446744073709551615 18446744073709551615 18446744073709551615 18446744073709551615 18446744073709551615 18446744073709551615 18446744073709551615 18446744073709551615 18446744073709551615 18446744073709551615 18446744073709551615 18446744073709551615 18446744073709551615 18446744073709551615 18446744073709551615 18446744073709551615 18446744073709551615 18446744073709551615 18446744073709551615 18446744073709551615 18446744073709551615 18446744073709551615 18446744073709551615 18446744073709551615 18446744073709551615 18446744073709551615 18446744073709551615 18446744073709551615 18446744073709551615 18446744073709551615 18446744073709551615 18446744073709551615 18446744073709551615 18446744073709551615 18446744073709551615 18446744073709551615 18446744073709551615 18446744073709551615 18446744073709551615 18446744073709551615 18446744073709551615 18446744073709551615 18446744073709551615 18446744073709551615 18446744073709551615 18446744073709551615 18446744073709551615 18446744073709551615 18446744073709551615 18446744073709551615 18446744073709551615 18446744073709551615 18446744073709551615 18446744073709551615 18446744073709551615 18446744073709551615 18446744073709551615 18446744073709551615 18446744073709551615 18446744073709551615 18446744073709551615 18446744073709551615 18446744073709551615 18446744073709551615 18446744073709551615 18446744073709551615 18446744073709551615 18446744073709551615 18446744073709551615 18446744073709551615 18446744073709551615 18446744073709551615 18446744073709551615 18446744073709551615 18446744073709551615 18446744073709551615 18446744073709551615 18446744073709551615 18446744073709551615 18446744073709551615 18446744073709551615 18446744073709551615 18446744073709551615 18446744073709551615 18446744073709551615 18446744073709551615 18446744073709551615 18446744073709551615 18446744073709551615 18446744073709551615 18446744073709551615 18446744073709551615 18446744073709551615 18446744073709551615 18446744073709551615 18446744073709551615 18446744073709551615 18446744073709551615 18446744073709551615 18446744073709551615 18446744073709551615 18446744073709551615 18446744073709551615 18446744073709551615 18446744073709551615 18446744073709551615 18446744073709551615 18446744073709551615 18446744073709551615 18446744073709551615 18446744073709551615 18446744073709551615 18446744073709551615 18446744073709551615 18446744073709551615 18446744073709551615 18446744073709551615 18446744073709551615 18446744073709551615 18446744073709551615 18446744073709551615 18446744073709551615 18446744073709551615 18446744073709551615 18446744073709551615 18446744073709551615 18446744073709551615 18446744073709551615 18446744073709551615 18446744073709551615 18446744073709551615 18446744073709551615 18446744073709551615 18446744073709551615 18446744073709551615 18446744073709551615 18446744073709551615 18446744073709551615 18446744073709551615 18446744073709551615 18446744073709551615 18446744073709551615 18446744073709551615 18446744073709551615 18446744073709551615 18446744073709551615 18446744073709551615 18446744073709551615 18446744073709551615 18446744073709551615 18446744073709551615 18446744073709551615 18446744073709551615 18446744073709551615 18446744073709551615 18446744073709551615 18446744073709551615 18446744073709551615 18446744073709551615 18446744073709551615 18446744073709551615 18446744073709551615 18446744073709551615 18446744073709551615 18446744073709551615 18446744073709551615 18446744073709551615 18446744073709551615 18446744073709551615 18446744073709551615 18446744073709551615 18446744073709551615 18446744073709551615 18446744073709551615 18446744073709551615 18446744073709551615 18446744073709551615 18446744073709551615 18446744073709551615 18446744073709551615 18446744073709551615 18446744073709551615 18446744073709551615 18446744073709551615 18446744073709551615 18446744073709551615 18446744073709551615 18446744073709551615 18446744073709551615 18446744073709551615 18446744073709551615 18446744073709551615 18446744073709551615 18446744073709551615 18446744073709551615 18446744073709551615 18446744073709551615 18446744073709551615 18446744073709551615 18446744073709551615 18446744073709551615 18446744073709551615 18446744073709551615 18446744073709551615 18446744073709551615 18446744073709551615 18446744073709551615 18446744073709551615 18446744073709551615 18446744073709551615 18446744073709551615 18446744073709551615 18446744073709551615 18446744073709551615 18446744073709551615 18446744073709551615 18446744073709551615 18446744073709551615 18446744073709551615 18446744073709551615 18446744073709551615 18446744073709551615 18446744073709551615 18446744073709551615 18446744073709551615 18446744073709551615 18446744073709551615 18446744073709551615 18446744073709551615 18446744073709551615 18446744073709551615 18446744073709551615 18446744073709551615 18446744073709551615 18446744073709551615 18446744073709551615 18446744073709551615 18446744073709551615 18446744073709551615 18446744073709551615 18446744073709551615 5 5 18446744073709551615 5 18446744073709551615 18446744073709551615 5 5 5 5 5 5 5 18446744073709551615 18446744073709551615 5 5 5 1 18446744073709551615 18446744073709551615 1 18446744073709551615 18446744073709551615 1 18446744073709551615 18446744073709551615 18446744073709551615 18446744073709551615 18446744073709551615 18446744073709551615 18446744073709551615 18446744073709551615 18446744073709551615 18446744073709551615 1 18446744073709551615 18446744073709551615 1 18446744073709551615 18446744073709551615 18446744073709551615 18446744073709551615 18446744073709551615 1 18446744073709551615 18446744073709551615 18446744073709551615 18446744073709551615 1 18446744073709551615 18446744073709551615 18446744073709551615 18446744073709551615 18446744073709551615 18446744073709551615 18446744073709551615 18446744073709551615 18446744073709551615 1 18446744073709551615 18446744073709551615 18446744073709551615 1 18446744073709551615 18446744073709551615 1 18446744073709551615 18446744073709551615 1 18446744073709551615 18446744073709551615 18446744073709551615 18446744073709551615 18446744073709551615 18446744073709551615 18446744073709551615 18446744073709551615 18446744073709551615 18446744073709551615 1 18446744073709551615 18446744073709551615 18446744073709551615 1 18446744073709551615 1 18446744073709551615 18446744073709551615 18446744073709551615 18446744073709551615 18446744073709551615 18446744073709551615 18446744073709551615 18446744073709551615 18446744073709551615 18446744073709551615 18446744073709551615 18446744073709551615 18446744073709551615 18446744073709551615 18446744073709551615 18446744073709551615 18446744073709551615 18446744073709551615 18446744073709551615 18446744073709551615 18446744073709551615 18446744073709551615 18446744073709551615 18446744073709551615 18446744073709551615 18446744073709551615 18446744073709551615 18446744073709551615 18446744073709551615 18446744073709551615 18446744073709551615 18446744073709551615 18446744073709551615 18446744073709551615 18446744073709551615 18446744073709551615 18446744073709551615 18446744073709551615 18446744073709551615 18446744073709551615 18446744073709551615 18446744073709551615 18446744073709551615 18446744073709551615 18446744073709551615 18446744073709551615 18446744073709551615 18446744073709551615 18446744073709551615 18446744073709551615 18446744073709551615 18446744073709551615 18446744073709551615 18446744073709551615 18446744073709551615 18446744073709551615 18446