<?xml version="1.0"?>
<VTKFile type="UnstructuredGrid"  version="0.1"  >
<UnstructuredGrid>
<Piece  NumberOfPoints="397" NumberOfCells="1500">
<Points>
<DataArray  type="Float64"  NumberOfComponents="3"  format="ascii">0 0 0  1 0 0  1 0.5 0  1 0.5 0.1  1 0 0.1  0 0 0.1  0 0.5 0  0 0.5 0.1  2 0 0  2 0.5 0  2 0.5 0.1  2 0 0.1  3 0 0  3 0.5 0  3 0.5 0.1  3 0 0.1  4 0 0  4 0.5 0  4 0.5 0.1  4 0 0.1  5 0 0  5 0.5 0  5 0.5 0.1  5 0 0.1  1 1 0  1 1 0.1  0 1 0  0 1 0.1  2 1 0  2 1 0.1  3 1 0  3 1 0.1  4 1 0  4 1 0.1  5 1 0  5 1 0.1  1 1.5 0  1 1.5 0.1  0 1.5 0  0 1.5 0.1  2 1.5 0  2 1.5 0.1  3 1.5 0  3 1.5 0.1  4 1.5 0  4 1.5 0.1  5 1.5 0  5 1.5 0.1  1 2 0  1 2 0.1  0 2 0  0 2 0.1  2 2 0  2 2 0.1  3 2 0  3 2 0.1  4 2 0  4 2 0.1  5 2 0  5 2 0.1  1 2.5 0  1 2.5 0.1  0 2.5 0  0 2.5 0.1  2 2.5 0  2 2.5 0.1  3 2.5 0  3 2.5 0.1  4 2.5 0  4 2.5 0.1  5 2.5 0  5 2.5 0.1  1 3 0  1 3 0.1  0 3 0  0 3 0.1  2 3 0  2 3 0.1  3 3 0  3 3 0.1  4 3 0  4 3 0.1  5 3 0  5 3 0.1  1 3.5 0  1 3.5 0.1  0 3.5 0  0 3.5 0.1  2 3.5 0  2 3.5 0.1  3 3.5 0  3 3.5 0.1  4 3.5 0  4 3.5 0.1  5 3.5 0  5 3.5 0.1  1 4 0  1 4 0.1  0 4 0  0 4 0.1  2 4 0  2 4 0.1  3 4 0  3 4 0.1  4 4 0  4 4 0.1  5 4 0  5 4 0.1  1 4.5 0  1 4.5 0.1  0 4.5 0  0 4.5 0.1  2 4.5 0  2 4.5 0.1  3 4.5 0  3 4.5 0.1  4 4.5 0  4 4.5 0.1  5 4.5 0  5 4.5 0.1  1 5 0  1 5 0.1  0 5 0  0 5 0.1  2 5 0  2 5 0.1  3 5 0  3 5 0.1  4 5 0  4 5 0.1  5 5 0  5 5 0.1  1 0.5 0.2  1 0 0.2  0 0 0.2  0 0.5 0.2  2 0.5 0.2  2 0 0.2  3 0.5 0.2  3 0 0.2  4 0.5 0.2  4 0 0.2  5 0.5 0.2  5 0 0.2  1 1 0.2  0 1 0.2  2 1 0.2  3 1 0.2  4 1 0.2  5 1 0.2  1 1.5 0.2  0 1.5 0.2  2 1.5 0.2  3 1.5 0.2  4 1.5 0.2  5 1.5 0.2  1 2 0.2  0 2 0.2  2 2 0.2  3 2 0.2  4 2 0.2  5 2 0.2  1 2.5 0.2  0 2.5 0.2  2 2.5 0.2  3 2.5 0.2  4 2.5 0.2  5 2.5 0.2  1 3 0.2  0 3 0.2  2 3 0.2  3 3 0.2  4 3 0.2  5 3 0.2  1 3.5 0.2  0 3.5 0.2  2 3.5 0.2  3 3.5 0.2  4 3.5 0.2  5 3.5 0.2  1 4 0.2  0 4 0.2  2 4 0.2  3 4 0.2  4 4 0.2  5 4 0.2  1 4.5 0.2  0 4.5 0.2  2 4.5 0.2  3 4.5 0.2  4 4.5 0.2  5 4.5 0.2  1 5 0.2  0 5 0.2  2 5 0.2  3 5 0.2  4 5 0.2  5 5 0.2  1 0.5 0.3  1 0 0.3  0 0 0.3  0 0.5 0.3  2 0.5 0.3  2 0 0.3  3 0.5 0.3  3 0 0.3  4 0.5 0.3  4 0 0.3  5 0.5 0.3  5 0 0.3  1 1 0.3  0 1 0.3  2 1 0.3  3 1 0.3  4 1 0.3  5 1 0.3  1 1.5 0.3  0 1.5 0.3  2 1.5 0.3  3 1.5 0.3  4 1.5 0.3  5 1.5 0.3  1 2 0.3  0 2 0.3  2 2 0.3  3 2 0.3  4 2 0.3  5 2 0.3  1 2.5 0.3  0 2.5 0.3  2 2.5 0.3  3 2.5 0.3  4 2.5 0.3  5 2.5 0.3  1 3 0.3  0 3 0.3  2 3 0.3  3 3 0.3  4 3 0.3  5 3 0.3  1 3.5 0.3  0 3.5 0.3  2 3.5 0.3  3 3.5 0.3  4 3.5 0.3  5 3.5 0.3  1 4 0.3  0 4 0.3  2 4 0.3  3 4 0.3  4 4 0.3  5 4 0.3  1 4.5 0.3  0 4.5 0.3  2 4.5 0.3  3 4.5 0.3  4 4.5 0.3  5 4.5 0.3  1 5 0.3  0 5 0.3  2 5 0.3  3 5 0.3  4 5 0.3  5 5 0.3  1 0.5 0.4  1 0 0.4  0 0.5 0.4  2 0.5 0.4  2 0 0.4  3 0.5 0.4  3 0 0.4  4 0.5 0.4  4 0 0.4  5 0.5 0.4  5 0 0.4  1 1 0.4  0 1 0.4  2 1 0.4  3 1 0.4  4 1 0.4  5 1 0.4  1 1.5 0.4  0 1.5 0.4  2 1.5 0.4  3 1.5 0.4  4 1.5 0.4  5 1.5 0.4  1 2 0.4  0 2 0.4  2 2 0.4  3 2 0.4  4 2 0.4  5 2 0.4  1 2.5 0.4  0 2.5 0.4  2 2.5 0.4  3 2.5 0.4  4 2.5 0.4  5 2.5 0.4  1 3 0.4  0 3 0.4  2 3 0.4  3 3 0.4  4 3 0.4  5 3 0.4  1 3.5 0.4  0 3.5 0.4  2 3.5 0.4  3 3.5 0.4  4 3.5 0.4  5 3.5 0.4  1 4 0.4  0 4 0.4  2 4 0.4  3 4 0.4  4 4 0.4  5 4 0.4  1 4.5 0.4  0 4.5 0.4  2 4.5 0.4  3 4.5 0.4  4 4.5 0.4  5 4.5 0.4  1 5 0.4  0 5 0.4  2 5 0.4  3 5 0.4  4 5 0.4  5 5 0.4  1 2.5 0.5  2 2.5 0.5  3 2.5 0.5  4 2.5 0.5  5 2.5 0.5  1 3 0.5  0 3 0.5  2 3 0.5  3 3 0.5  4 3 0.5  5 3 0.5  1 3.5 0.5  0 3.5 0.5  2 3.5 0.5  3 3.5 0.5  4 3.5 0.5  5 3.5 0.5  1 4 0.5  0 4 0.5  2 4 0.5  3 4 0.5  4 4 0.5  5 4 0.5  1 4.5 0.5  0 4.5 0.5  2 4.5 0.5  3 4.5 0.5  4 4.5 0.5  5 4.5 0.5  1 5 0.5  0 5 0.5  2 5 0.5  3 5 0.5  4 5 0.5  5 5 0.5  2 3 0.6  3 3 0.6  4 3 0.6  5 3 0.6  1 3.5 0.6  0 3.5 0.6  2 3.5 0.6  3 3.5 0.6  4 3.5 0.6  5 3.5 0.6  1 4 0.6  0 4 0.6  2 4 0.6  3 4 0.6  4 4 0.6  5 4 0.6  1 4.5 0.6  0 4.5 0.6  2 4.5 0.6  3 4.5 0.6  4 4.5 0.6  5 4.5 0.6  1 5 0.6  0 5 0.6  2 5 0.6  3 5 0.6  4 5 0.6  5 5 0.6  5 4.5 0.7  2 5 0.7  3 5 0.7  4 5 0.7  5 5 0.7  </DataArray>
</Points>
<Cells>
<DataArray  type="UInt32"  Name="connectivity"  format="ascii">0 1 2 3  0 1 4 3  0 5 4 3  0 6 2 3  0 5 7 3  0 6 7 3  1 8 9 10  1 8 11 10  1 4 11 10  1 2 9 10  1 4 3 10  1 2 3 10  8 12 13 14  8 12 15 14  8 11 15 14  8 9 13 14  8 11 10 14  8 9 10 14  12 16 17 18  12 16 19 18  12 15 19 18  12 13 17 18  12 15 14 18  12 13 14 18  16 20 21 22  16 20 23 22  16 19 23 22  16 17 21 22  16 19 18 22  16 17 18 22  6 2 24 25  6 2 3 25  6 7 3 25  6 26 24 25  6 7 27 25  6 26 27 25  2 9 28 29  2 9 10 29  2 3 10 29  2 24 28 29  2 3 25 29  2 24 25 29  9 13 30 31  9 13 14 31  9 10 14 31  9 28 30 31  9 10 29 31  9 28 29 31  13 17 32 33  13 17 18 33  13 14 18 33  13 30 32 33  13 14 31 33  13 30 31 33  17 21 34 35  17 21 22 35  17 18 22 35  17 32 34 35  17 18 33 35  17 32 33 35  26 24 36 37  26 24 25 37  26 27 25 37  26 38 36 37  26 27 39 37  26 38 39 37  24 28 40 41  24 28 29 41  24 25 29 41  24 36 40 41  24 25 37 41  24 36 37 41  28 30 42 43  28 30 31 43  28 29 31 43  28 40 42 43  28 29 41 43  28 40 41 43  30 32 44 45  30 32 33 45  30 31 33 45  30 42 44 45  30 31 43 45  30 42 43 45  32 34 46 47  32 34 35 47  32 33 35 47  32 44 46 47  32 33 45 47  32 44 45 47  38 36 48 49  38 36 37 49  38 39 37 49  38 50 48 49  38 39 51 49  38 50 51 49  36 40 52 53  36 40 41 53  36 37 41 53  36 48 52 53  36 37 49 53  36 48 49 53  40 42 54 55  40 42 43 55  40 41 43 55  40 52 54 55  40 41 53 55  40 52 53 55  42 44 56 57  42 44 45 57  42 43 45 57  42 54 56 57  42 43 55 57  42 54 55 57  44 46 58 59  44 46 47 59  44 45 47 59  44 56 58 59  44 45 57 59  44 56 57 59  50 48 60 61  50 48 49 61  50 51 49 61  50 62 60 61  50 51 63 61  50 62 63 61  48 52 64 65  48 52 53 65  48 49 53 65  48 60 64 65  48 49 61 65  48 60 61 65  52 54 66 67  52 54 55 67  52 53 55 67  52 64 66 67  52 53 65 67  52 64 65 67  54 56 68 69  54 56 57 69  54 55 57 69  54 66 68 69  54 55 67 69  54 66 67 69  56 58 70 71  56 58 59 71  56 57 59 71  56 68 70 71  56 57 69 71  56 68 69 71  62 60 72 73  62 60 61 73  62 63 61 73  62 74 72 73  62 63 75 73  62 74 75 73  60 64 76 77  60 64 65 77  60 61 65 77  60 72 76 77  60 61 73 77  60 72 73 77  64 66 78 79  64 66 67 79  64 65 67 79  64 76 78 79  64 65 77 79  64 76 77 79  66 68 80 81  66 68 69 81  66 67 69 81  66 78 80 81  66 67 79 81  66 78 79 81  68 70 82 83  68 70 71 83  68 69 71 83  68 80 82 83  68 69 81 83  68 80 81 83  74 72 84 85  74 72 73 85  74 75 73 85  74 86 84 85  74 75 87 85  74 86 87 85  72 76 88 89  72 76 77 89  72 73 77 89  72 84 88 89  72 73 85 89  72 84 85 89  76 78 90 91  76 78 79 91  76 77 79 91  76 88 90 91  76 77 89 91  76 88 89 91  78 80 92 93  78 80 81 93  78 79 81 93  78 90 92 93  78 79 91 93  78 90 91 93  80 82 94 95  80 82 83 95  80 81 83 95  80 92 94 95  80 81 93 95  80 92 93 95  86 84 96 97  86 84 85 97  86 87 85 97  86 98 96 97  86 87 99 97  86 98 99 97  84 88 100 101  84 88 89 101  84 85 89 101  84 96 100 101  84 85 97 101  84 96 97 101  88 90 102 103  88 90 91 103  88 89 91 103  88 100 102 103  88 89 101 103  88 100 101 103  90 92 104 105  90 92 93 105  90 91 93 105  90 102 104 105  90 91 103 105  90 102 103 105  92 94 106 107  92 94 95 107  92 93 95 107  92 104 106 107  92 93 105 107  92 104 105 107  98 96 108 109  98 96 97 109  98 99 97 109  98 110 108 109  98 99 111 109  98 110 111 109  96 100 112 113  96 100 101 113  96 97 101 113  96 108 112 113  96 97 109 113  96 108 109 113  100 102 114 115  100 102 103 115  100 101 103 115  100 112 114 115  100 101 113 115  100 112 113 115  102 104 116 117  102 104 105 117  102 103 105 117  102 114 116 117  102 103 115 117  102 114 115 117  104 106 118 119  104 106 107 119  104 105 107 119  104 116 118 119  104 105 117 119  104 116 117 119  110 108 120 121  110 108 109 121  110 111 109 121  110 122 120 121  110 111 123 121  110 122 123 121  108 112 124 125  108 112 113 125  108 109 113 125  108 120 124 125  108 109 121 125  108 120 121 125  112 114 126 127  112 114 115 127  112 113 115 127  112 124 126 127  112 113 125 127  112 124 125 127  114 116 128 129  114 116 117 129  114 115 117 129  114 126 128 129  114 115 127 129  114 126 127 129  116 118 130 131  116 118 119 131  116 117 119 131  116 128 130 131  116 117 129 131  116 128 129 131  5 4 3 132  5 4 133 132  5 134 133 132  5 7 3 132  5 134 135 132  5 7 135 132  4 11 10 136  4 11 137 136  4 133 137 136  4 3 10 136  4 133 132 136  4 3 132 136  11 15 14 138  11 15 139 138  11 137 139 138  11 10 14 138  11 137 136 138  11 10 136 138  15 19 18 140  15 19 141 140  15 139 141 140  15 14 18 140  15 139 138 140  15 14 138 140  19 23 22 142  19 23 143 142  19 141 143 142  19 18 22 142  19 141 140 142  19 18 140 142  7 3 25 144  7 3 132 144  7 135 132 144  7 27 25 144  7 135 145 144  7 27 145 144  3 10 29 146  3 10 136 146  3 132 136 146  3 25 29 146  3 132 144 146  3 25 144 146  10 14 31 147  10 14 138 147  10 136 138 147  10 29 31 147  10 136 146 147  10 29 146 147  14 18 33 148  14 18 140 148  14 138 140 148  14 31 33 148  14 138 147 148  14 31 147 148  18 22 35 149  18 22 142 149  18 140 142 149  18 33 35 149  18 140 148 149  18 33 148 149  27 25 37 150  27 25 144 150  27 145 144 150  27 39 37 150  27 145 151 150  27 39 151 150  25 29 41 152  25 29 146 152  25 144 146 152  25 37 41 152  25 144 150 152  25 37 150 152  29 31 43 153  29 31 147 153  29 146 147 153  29 41 43 153  29 146 152 153  29 41 152 153  31 33 45 154  31 33 148 154  31 147 148 154  31 43 45 154  31 147 153 154  31 43 153 154  33 35 47 155  33 35 149 155  33 148 149 155  33 45 47 155  33 148 154 155  33 45 154 155  39 37 49 156  39 37 150 156  39 151 150 156  39 51 49 156  39 151 157 156  39 51 157 156  37 41 53 158  37 41 152 158  37 150 152 158  37 49 53 158  37 150 156 158  37 49 156 158  41 43 55 159  41 43 153 159  41 152 153 159  41 53 55 159  41 152 158 159  41 53 158 159  43 45 57 160  43 45 154 160  43 153 154 160  43 55 57 160  43 153 159 160  43 55 159 160  45 47 59 161  45 47 155 161  45 154 155 161  45 57 59 161  45 154 160 161  45 57 160 161  51 49 61 162  51 49 156 162  51 
[...]
<PointData  Vectors="f_18"> 
<DataArray  type="Float64"  Name="f_18"  NumberOfComponents="3" format="ascii">0.0000000000000000e+00 0.0000000000000000e+00 0.0000000000000000e+00  0.0000000000000000e+00 0.0000000000000000e+00 0.0000000000000000e+00  0.0000000000000000e+00 0.0000000000000000e+00 0.0000000000000000e+00  1.2253880848664869e-03 2.6632941527271522e-03 4.6120263835856720e-04  1.1741150124664984e-03 5.3064105534846766e-03 1.1196506586164359e-03  3.0246924802349931e-03 3.3298888755811081e-03 1.0619833650915226e-03  0.0000000000000000e+00 0.0000000000000000e+00 0.0000000000000000e+00  4.0547536845291950e-03 1.6079839960151427e-03 6.7344256924622579e-04  0.0000000000000000e+00 0.0000000000000000e+00 0.0000000000000000e+00  0.0000000000000000e+00 0.0000000000000000e+00 0.0000000000000000e+00  5.0985252523886454e-04 3.5532954775027038e-03 4.9020302357129448e-04  4.8456800912230577e-04 6.3365372040697391e-03 1.1880177652566820e-03  0.0000000000000000e+00 0.0000000000000000e+00 0.0000000000000000e+00  0.0000000000000000e+00 0.0000000000000000e+00 0.0000000000000000e+00  2.1189411797026668e-04 3.8850077758369015e-03 4.9742929675858588e-04  1.7685927938930146e-04 6.6786921301423986e-03 1.2044921598507810e-03  0.0000000000000000e+00 0.0000000000000000e+00 0.0000000000000000e+00  0.0000000000000000e+00 0.0000000000000000e+00 0.0000000000000000e+00  8.4538998331584877e-05 4.0115522466740525e-03 5.0113673365670668e-04  5.0370968593118574e-05 6.8005067428174521e-03 1.2097487524206816e-03  0.0000000000000000e+00 0.0000000000000000e+00 0.0000000000000000e+00  0.0000000000000000e+00 0.0000000000000000e+00 0.0000000000000000e+00  1.3770602705942531e-05 4.0456304540096169e-03 5.0196700393485740e-04  -1.7332627907524698e-05 6.8334799266786365e-03 1.2124635053946270e-03  0.0000000000000000e+00 0.0000000000000000e+00 0.0000000000000000e+00  1.7114529249651724e-03 1.6466442821631356e-03 5.6063135952008636e-04  0.0000000000000000e+00 0.0000000000000000e+00 0.0000000000000000e+00  5.1565803569144529e-03 1.0590831559937812e-03 7.3950268651041629e-04  0.0000000000000000e+00 0.0000000000000000e+00 0.0000000000000000e+00  6.9420613923283419e-04 2.3518683994198275e-03 6.3576699703461336e-04  0.0000000000000000e+00 0.0000000000000000e+00 0.0000000000000000e+00  2.6999609682304166e-04 2.6266018203515069e-03 6.5701453035725175e-04  0.0000000000000000e+00 0.0000000000000000e+00 0.0000000000000000e+00  9.3661732389224879e-05 2.7300479018908495e-03 6.6631672395165863e-04  0.0000000000000000e+00 0.0000000000000000e+00 0.0000000000000000e+00  -3.9179564427315931e-06 2.7571208677257988e-03 6.6857764337102958e-04  0.0000000000000000e+00 0.0000000000000000e+00 0.0000000000000000e+00  2.1179529653079427e-03 9.0908700597154926e-04 6.0436405111391337e-04  0.0000000000000000e+00 0.0000000000000000e+00 0.0000000000000000e+00  5.8997762937962762e-03 6.2286890612122758e-04 7.8814804716028600e-04  0.0000000000000000e+00 0.0000000000000000e+00 0.0000000000000000e+00  8.7570064997091518e-04 1.3564864683215359e-03 7.0244560923903097e-04  0.0000000000000000e+00 0.0000000000000000e+00 0.0000000000000000e+00  3.4309473134474394e-04 1.5443789838756339e-03 7.3106026522554851e-04  0.0000000000000000e+00 0.0000000000000000e+00 0.0000000000000000e+00  1.2168594002990046e-04 1.6157978150122935e-03 7.4330400470284128e-04  0.0000000000000000e+00 0.0000000000000000e+00 0.0000000000000000e+00  -2.7826631372452089e-07 1.6338399128851091e-03 7.4612733809430957e-04  0.0000000000000000e+00 0.0000000000000000e+00 0.0000000000000000e+00  2.3503181959354295e-03 4.0677766861739456e-04 6.2331217150170433e-04  0.0000000000000000e+00 0.0000000000000000e+00 0.0000000000000000e+00  6.3023001893426555e-03 2.8168727675365745e-04 8.1545224204596838e-04  0.0000000000000000e+00 0.0000000000000000e+00 0.0000000000000000e+00  9.8885719616133901e-04 6.2273152220607435e-04 7.3264280360551832e-04  0.0000000000000000e+00 0.0000000000000000e+00 0.0000000000000000e+00  3.8891820817534890e-04 7.1909667803212623e-04 7.6412681059409777e-04  0.0000000000000000e+00 0.0000000000000000e+00 0.0000000000000000e+00  1.3808099731663130e-04 7.5545700921228953e-04 7.7758105862565853e-04  0.0000000000000000e+00 0.0000000000000000e+00 0.0000000000000000e+00  1.5312907506235134e-07 7.6426545251292739e-04 7.8055795901559434e-04  0.0000000000000000e+00 0.0000000000000000e+00 0.0000000000000000e+00  2.4244377808833447e-03 5.1013568892981200e-08 6.2894617113165411e-04  0.0000000000000000e+00 0.0000000000000000e+00 0.0000000000000000e+00  6.4309058283036685e-03 -7.9105753726316352e-06 8.2425738758725071e-04  0.0000000000000000e+00 0.0000000000000000e+00 0.0000000000000000e+00  1.0273158693105738e-03 2.1693317923782077e-06 7.4228162955627898e-04  0.0000000000000000e+00 0.0000000000000000e+00 0.0000000000000000e+00  4.0441235515472387e-04 1.5626894353680532e-06 7.7455499714937446e-04  0.0000000000000000e+00 0.0000000000000000e+00 0.0000000000000000e+00  1.4361970194139557e-04 -1.1852491655050022e-07 7.8842650929331201e-04  0.0000000000000000e+00 0.0000000000000000e+00 0.0000000000000000e+00  1.3989181420978460e-07 -1.2184069521949528e-06 7.9144693029882789e-04  0.0000000000000000e+00 0.0000000000000000e+00 0.0000000000000000e+00  2.3496740218869674e-03 -4.0807693798679642e-04 6.2216989252112450e-04  0.0000000000000000e+00 0.0000000000000000e+00 0.0000000000000000e+00  6.3102817269315662e-03 -2.9477789638203601e-04 8.1653518928655796e-04  0.0000000000000000e+00 0.0000000000000000e+00 0.0000000000000000e+00  9.8992028941997283e-04 -6.1843299455106371e-04 7.3122055097647211e-04  0.0000000000000000e+00 0.0000000000000000e+00 0.0000000000000000e+00  3.8871055783899945e-04 -7.1751950101530228e-04 7.6138110672927125e-04  0.0000000000000000e+00 0.0000000000000000e+00 0.0000000000000000e+00  1.3828228145875516e-04 -7.5720097293085554e-04 7.7447140899166518e-04  0.0000000000000000e+00 0.0000000000000000e+00 0.0000000000000000e+00  2.5995117195572316e-07 -7.6802610432975588e-04 7.7724570483729311e-04  0.0000000000000000e+00 0.0000000000000000e+00 0.0000000000000000e+00  2.1193601001566627e-03 -9.1068015045622265e-04 5.9879388795875527e-04  0.0000000000000000e+00 0.0000000000000000e+00 0.0000000000000000e+00  5.9134903581468043e-03 -6.2581188287363888e-04 7.8642102262527268e-04  0.0000000000000000e+00 0.0000000000000000e+00 0.0000000000000000e+00  8.7830431242165755e-04 -1.3494693771065147e-03 6.9391465779667435e-04  0.0000000000000000e+00 0.0000000000000000e+00 0.0000000000000000e+00  3.4388055157311002e-04 -1.5440338989371762e-03 7.1886716017410433e-04  0.0000000000000000e+00 0.0000000000000000e+00 0.0000000000000000e+00  1.2321779481887284e-04 -1.6184867605494428e-03 7.2998695273467399e-04  0.0000000000000000e+00 0.0000000000000000e+00 0.0000000000000000e+00  1.0209991824601907e-06 -1.6380496760232996e-03 7.3234840209312623e-04  0.0000000000000000e+00 0.0000000000000000e+00 0.0000000000000000e+00  1.7223189947775531e-03 -1.6419869911208813e-03 5.7456983693510600e-04  0.0000000000000000e+00 0.0000000000000000e+00 0.0000000000000000e+00  5.1734387795257953e-03 -1.0618965717750252e-03 7.6261615588614723e-04  0.0000000000000000e+00 0.0000000000000000e+00 0.0000000000000000e+00  7.0023222719152890e-04 -2.3330568236897171e-03 6.5208714024031587e-04  0.0000000000000000e+00 0.0000000000000000e+00 0.0000000000000000e+00  2.7479013437046497e-04 -2.6108166604541889e-03 6.7059460870242890e-04  0.0000000000000000e+00 0.0000000000000000e+00 0.0000000000000000e+00  9.9608207323982593e-05 -2.7135136828377983e-03 6.7927361955498976e-04  0.0000000000000000e+00 0.0000000000000000e+00 0.0000000000000000e+00  1.6231536137604606e-06 -2.7399373686813793e-03 6.8081342560115561e-04  0.0000000000000000e+00 0.0000000000000000e+00 0.0000000000000000e+00  1.2339022125590832e-03 -2.6589688167686664e-03 3.7443220482804201e-04  0.0000000000000000e+00 0.0000000000000000e+00 0.0000000000000000e+00  4.0142986653555124e-03 -1.5730142572396274e-03 5.3249048057474411e-04  0.0000000000000000e+00 0.0000000000000000e+00 0.0000000000000000e+00  4.9970592287352448e-04 -3.5416936081469463e-03 3.8258075502450048e-04  0.0000000000000000e+00 0.0000000000000000e+00 0.0000000000000000e+00  1.9353996009796324e-04 -3.8619366558615273e-03 3.8073097037901935e-04  0.0000000000000000e+00 0.0000000000000000e+00 0.0000000000000000e+00  6.5429571118670056e-05 -3.9791726775619124e-03 3.8184728239706227e-04  0.0000000000000000e+00 0.0000000000000000e+00 0.0000000000000000e+00  -6.2445871714726067e-06 -4.0093481813141766e-03 3.8202135559504600e-04  0.0000000000000000e+00 0.0000000000000000e+00 0.0000000000000000e+00  1.2549571227673791e-03 -5.2036487550497527e-03 8.7875856113531854e-04  0.0000000000000000e+00 0.0000000000000000e+00 0.0000000000000000e+00  3.8172652373580735e-03 -3.6700349678524076e-03 1.2950671821666427e-03  0.0000000000000000e+00 0.0000000000000000e+00 0.0000000000000000e+00  5.6976330990215205e-04 -6.2974755226546594e-03 9.3110832062265401e-04  0.0000000000000000e+00 0.0000000000000000e+00 0.0000000000000000e+00  2.6590307801520303e-04 -6.6118068959089837e-03 9.2304387085299997e-04  0.0000000000000000e+00 0.0000000000000000e+00 0.0000000000000000e+00  1.3965863600616464e-04 -6.7257476335432853e-03 9.1790293658074770e-04  0.0000000000000000e+00 0.0000000000000000e+00 0.0000000000000000e+00  7.0366818813028621e-05 -6.7549509557619479e-03 9.1509645400171102e-04  2.1973851519146367e-03 4.8298323412071485e-03 1.1075396523510712e-03  2.2236390288158867e-03 8.4013216256500732e-03 2.3778147165742038e-03  4.9708541736506792e-03 5.0881543000025169e-03 2.2702234046443506e-03  6.5044297869388205e-03 2.9907736004579845e-03 1.6438042235986932e-03  9.1774861130160007e-04 6.3875316103524094e-03 1.1374393987759273e-03  9.5129342278937401e-04 1.0386558899045399e-02 2.5655888997724993e-03  3.8378952073329903e-04 6.9695651492974551e-03 1.1136189009571078e-03  3.7586729619229318e-04 1.1110539300679753e-02 2.6208831827474991e-03  1.5361790390837164e-04 7.1921936430385160e-03 1.1083524781321120e-03  1.3561210975063774e-04 1.1377734689713133e-02 2.6404335547076298e-03  2.5755589741011298e-05 7.2511968949369419e-03 1.1058478109580651e-03  6.3781688550658843e-06 1.1447156590360739e-02 2.6473997762274130e-03  3.0515967058739311e-03 2.9424574118738951e-03 1.3728744945381325e-03  8.3384734608052246e-03 1.9526063834898594e-03 1.7727396519761820e-03  1.2365036758082630e-03 4.1765636068956660e-03 1.5441098078454419e-03  4.8615010741237958e-04 4.6621064229405099e-03 1.5679695425594160e-03  1.6943032160277418e-04 4.8445740667233750e-03 1.5831943816333350e-03  -5.3256979214454276e-06 4.8917262565102556e-03 1.5866969991323843e-03  3.7641063719553933e-03 1.6305953364337416e-03 1.4143582330755835e-03  9.5853765034115065e-03 1.1551658696833083e-03 1.8527388665278408e-03  1.5568506769298733e-03 2.4196246973631863e-03 1.6160157086014652e-03  6.1496296744238275e-04 2.7539973496174147e-03 1.6421941821256299e-03  2.1847809060296028e-04 2.8811017062559947e-03 1.6597702906481716e-03  7.7416937301864976e-07 2.9131276931137129e-03 1.6631219964998033e-03  4.1727719209326136e-03 7.3294536443436749e-04 1.4324507128644335e-03  1.0261626292032951e-02 5.3633245787008520e-04 1.8967137119364447e-03  1.7558970378305876e-03 1.1130346040418241e-03 1.6551118089127878e-03  6.9481631320164117e-04 1.2847937203775137e-03 1.6830527319896965e-03  2.4584257563513122e-04 1.3494676017263166e-03 1.7024363570763759e-03  -1.8875308101224897e-07 1.3651199835110750e-03 1.7059057682605437e-03  4.3022664765185667e-03 3.9865105763378714e-06 1.4371513673029992e-03  1.0476209318959848e-02 1.0370278991112504e-05 1.9108067811851705e-03  1.8235658326135329e-03 4.7365199962437325e-06 1.6687536651777712e-03  7.2237805530925281e-04 3.1779114581679103e-06 1.6971626297356643e-03  2.5564675753690912e-04 -1.6307342084253818e-07 1.7174488061153183e-03  -1.6773232498214486e-07 -2.1633599988347394e-06 1.7209864072134232e-03  4.1679743269093673e-03 -7.2726579198980821e-04 1.4274262332056786e-03  1.0269558821256517e-02 -5.1154415293305918e-04 1.8970465938059344e-03  1.7564912311516193e-03 -1.1024259768470364e-03 1.6529016443840752e-03  6.9419374542711387e-04 -1.2799773322508001e-03 1.6781653998206728e-03  2.4590022992726111e-04 -1.3511120989137936e-03 1.6974611691163569e-03  -1.5444726052865888e-07 -1.3703930275778982e-03 1.7006548328987047e-03  3.7586925714099997e-03 -1.6297081498611982e-03 1.4000115438777218e-03  9.5989203339576310e-03 -1.1206535555587228e-03 1.8509415344050131e-03  1.5582911785928832e-03 -2.4088177396700094e-03 1.6033415764986718e-03  6.1462385924766468e-04 -2.7568024168340660e-03 1.6223022399036726e-03  2.1933377118716978e-04 -2.8899055801089079e-03 1.6390853412840169e-03  1.4060238069714665e-06 -2.9246174012247791e-03 1.6417436772571247e-03  3.0522527025701163e-03 -2.9103500644588574e-03 1.3659927098889258e-03  8.3359402886908230e-03 -1.9030777515664620e-03 1.7905018332081831e-03  1.2375351735109683e-03 -4.1300900279620089e-03 1.5382441221597227e-03  4.8537052111786603e-04 -4.6267906750950081e-03 1.5494449119691312e-03  1.7043408852820030e-04 -4.8099845655781249e-03 1.5629892200194747e-03  -4.7117536095606360e-06 -4.8569303910729281e-03 1.5645429129958861e-03  2.2218785746871690e-03 -4.8819890671275568e-03 1.0992828767334318e-03  6.4910583525690973e-03 -2.9837244947037564e-03 1.4946439120787183e-03  9.1639904151604151e-04 -6.4993765092230668e-03 1.1411186381221341e-03  3.7426033089261372e-04 -7.0907265031831118e-03 1.1174237939977738e-03  1.4208403454808301e-04 -7.3066147329990403e-03 1.1162628219280170e-03  1.2426844818964442e-05 -7.3620937527635131e-03 1.1150875391038163e-03  2.1528268298809188e-03 -8.2758109772645121e-03 2.0543412026447325e-03  5.5022363785422737e-03 -5.2058925520822091e-03 2.8253362863855124e-03  9.4047308276665805e-04 -1.0320991334258147e-02 2.2900969640957843e-03  3.9738772238874710e-04 -1.1006776779595098e-02 2.2815740900178276e-03  1.6288866769527182e-04 -1.1273755463179585e-02 2.2815042924396239e-03  3.4027694985256862e-05 -1.1343117520072218e-02 2.2781001424587591e-03  2.9405912543930906e-03 6.5141342879453138e-03 2.1361456365522782e-03  3.0348520029974449e-03 1.0332399284461693e-02 3.4271519524946979e-03  6.1959926012421715e-03 6.1356870857942215e-03 3.3128365665588875e-03  7.9688911173143948e-03 4.0566104418746545e-03 2.7482666820027074e-03  1.1891230531741025e-03 8.5972388667729226e-03 2.1558073524266101e-03  1.3162470435616905e-03 1.2967367872625266e-02 3.6499638249988457e-03  4.7991974686102087e-04 9.3859606626697650e-03 2.1042895417407240e-03  5.4899572120776423e-04 1.3971224906046244e-02 3.7195547117017851e-03  1.7246381694849145e-04 9.6863822099880533e-03 2.0918460000221672e-03  2.2452804009508311e-04 1.4346029263642823e-02 3.7457268746610194e-03  2.2541206721045406e-06 9.7654622060491959e-03 2.0867430106137892e-03  4.8998305803855919e-05 1.4442929793525891e-02 3.7540839235130920e-03  4.0782824907242988e-03 3.8635623419374164e-03 2.4343394386948680e-03  1.0287971424799126e-02 2.6162893351808904e-03 2.8798625697120180e-03  1.6336525575623166e-03 5.4799553276198001e-03 2.6486501621737187e-03  6.4562264670498274e-04 6.1179892318047281e-03 2.6623525012024573e-03  2.2551819608643110e-04 6.3574538518648988e-03 2.6809958133026763e-03  -5.3648551971488077e-06 6.4189140106855370e-03 2.6848298232596927e-03  5.0135219915050031e-03 2.1436257169741208e-03 2.4528323154882391e-03  1.1866648693000019e-02 1.5490253287664621e-03 2.9587965725835523e-03  2.0495889214416220e-03 3.1838206471366329e-03 2.6826476200713925e-03  8.1233851965676761e-04 3.6257327072386852e-03 2.6848148388799453e-03  2.8782742362250962e-04 3.7932319687773264e-03 2.7016282251151524e-03  1.1216830263713365e-06 3.8354163869990668e-03 2.7033743265098211e-03  5.5523556796477627e-03 9.6113273585701796e-04 2.4636588278159799e-03  1.2724668772614689e-02 7.2372412841444620e-04 3.0017040664634155e-03  2.3108219911987943e-03 1.4653605125727503e-03 2.7193026496545696e-03  9.1725643270600772e-04 1.6929456758234332e-03 2.7217387585674125e-03  3.2350650813226699e-04 1.7780911078921137e-03 2.7412442543539926e-03  -3.9146195124498318e-07 1.7986367521133381e-03 2.7431753079170500e-03  5.7230110254619052e-03 -7.0994999030917978e-07 2.4653195402273291e-03  1.2995842051478374e-02 2.2448715666381296e-05 3.0153807126738256e-03  2.3995605455683837e-03 6.1509995979256522e-06 2.7316221836649170e-03  9.5369990119795547e-04 5.0243682367180011e-06 2.7330867262873207e-03  3.3649052003553769e-04 5.9691706637211187e-07 2.7536796730544327e-03  -2.1651406435896216e-07 -2.0447115466865010e-06 2.7555327970707703e-03  5.5452618772429017e-03 -9.6523776295976023e-04 2.4555874381370149e-03  1.2731259800991343e-02 -6.7406136245662721e-04 3.0002239883383402e-03  2.3113825078083425e-03 -1.4503699759631807e-03 2.7160516581300614e-03  9.1664751449771356e-04 -1.6838209964696333e-03 2.7142495366025633e-03  3.2358889867714911e-04 -1.7774292725494583e-03 2.7340576438759350e-03  -3.0000157349910535e-07 -1.8027259670121087e-03 2.7355794149254301e-03  5.0041396029119369e-03 -2.1550671389224288e-03 2.4348980448706931e-03  1.1876725949110687e-02 -1.4904724402540830e-03 2.9574911857815074e-03  2.0510143350863041e-03 -3.1693205457251719e-03 2.6732012259689411e-03  8.1171732803928518e-04 -3.6279033294080959e-03 2.6666757100567225e-03  2.8829906899516825e-04 -3.8029987495005304e-03 2.6843969562615525e-03  1.3326259731955920e-06 -3.8484339557267044e-03 2.6853985287079302e-03  4.0722624515886078e-03 -3.8277767937652829e-03 2.3903136621156100e-03  1.0270140899340382e-02 -2.5319085378740728e-03 2.8685087346726952e-03  1.6293069269908915e-03 -5.4141117695081162e-03 2.5916388528584040e-03  6.3959428237924450e-04 -6.0678098380243248e-03 2.5793027880819967e-03  2.2136017286509191e-04 -6.3084037177211427e-03 2.5938896837278242e-03  -9.7050891633092003e-06 -6.3699524928087494e-03 2.5941586164015509e-03  2.9940952596349481e-03 -6.5193140853062595e-03 2.2001806883309759e-03  7.9814410027891670e-03 -4.0515920750263884e-03 2.6700485888525834e-03  1.2332869755283513e-03 -8.6972977427972210e-03 2.2752459357527209e-03  5.1720529729859716e-04 -9.5037062679958952e-03 2.2318213063016873e-03  2.0755498477011396e-04 -9.7979650928302856e-03 2.2315339282118194e-03  3.5486102313515874e-05 -9.8734745215293025e-03 2.2288981293972728e-03  2.8570373210702977e-03 -1.0271597453581261e-02 3.0967509329020643e-03  6.4131409434111490e-03 -6.2600828749439282e-03 3.8505759508862866e-03  1.2034283694490016e-03 -1.2937803810025328e-02 3.4165675024554229e-03  4.6528600359637160e-04 -1.3901533713617721e-02 3.4030355281718921e-03  1.4533101715111498e-04 -1.4279836227946367e-02 3.4151311707302711e-03  -2.9195600800106260e-05 -1.4377766745141948e-02 3.4130905939617332e-03  3.4138194716039675e-03 7.5663189865535730e-03 3.4530750004995591e-03  3.5448720997646923e-03 1.1429962888234222e-02 4.3005629364646280e-03  8.7527608992054376e-03 4.7196094668936622e-03 3.9048887667803966e-03  1.3419665617124047e-03 9.9859859197226862e-03 3.4624512195267402e-03  1.5400981118373319e-03 1.4438798300057395e-02 4.4583018015455760e-03  5.2752615648831585e-04 1.0912020379170682e-02 3.4083241199825130e-03  6.6040944786607944e-04 1.5610959804805379e-02 4.5070538999459784e-03  1.7050855835898195e-04 1.1263516073851131e-02 3.3966820658301667e-03  2.8483937994453390e-04 1.6049621024819289e-02 4.5267392321388811e-03  -2.6083366403417380e-05 1.1355729325747728e-02 3.3915885732848337e-03  8.1172949016308668e-05 1.6163403743251471e-02 4.5328439229601744e-03  4.7312828183332907e-03 4.4084527460427911e-03 3.6718977894504403e-03  1.1348663839860848e-02 3.0243031675717879e-03 3.9923206935010705e-03  1.8722457339025876e-03 6.2477986998170877e-03 3.8483804733586927e-03  7.4882766427187815e-04 6.9754546674275367e-03 3.8456956863497024e-03  2.6568931351298044e-04 7.2478829845032651e-03 3.8620822727724355e-03  1.1523961361919202e-06 7.3175650893785877e-03 3.8645293959199598e-03  5.8011062515717637e-03 2.4518835038281530e-03 3.6697590297124598e-03  1.3116399222785548e-02 1.79005574563715